LAMMPS data file Created by LigParGen - (Written by Leela S. Dodda)

      17 atoms
      16 bonds
      28 angles
      29 dihedrals
       9 impropers
 
      17 atom types
      16 bond types
      28 angle types
      29 dihedral types
       9 improper types
 
   -4.011370    45.988630 xlo xhi
   -0.562650    49.437350 ylo yhi
   -3.596430    46.403570 zlo zhi

Masses

       1     12.011  
       2     12.011  
       3     15.999  
       4     15.999  
       5     12.011  
       6     12.011  
       7     12.011  
       8      1.008  
       9      1.008  
      10      1.008  
      11      1.008  
      12      1.008  
      13      1.008  
      14      1.008  
      15      1.008  
      16      1.008  
      17      1.008  

Pair Coeffs 

       1      0.066  3.5000000 
       2      0.070  3.5500000 
       3      0.210  2.9600000 
       4      0.140  2.9000000 
       5      0.066  3.5000000 
       6      0.066  3.5000000 
       7      0.066  3.5000000 
       8      0.030  2.5000000 
       9      0.030  2.5000000 
      10      0.030  2.5000000 
      11      0.030  2.5000000 
      12      0.030  2.5000000 
      13      0.030  2.5000000 
      14      0.030  2.5000000 
      15      0.030  2.5000000 
      16      0.030  2.5000000 
      17      0.030  2.5000000 

Bond Coeffs 

       1   317.0000     1.5220 
       2   570.0000     1.2290 
       3   214.0000     1.3270 
       4   320.0000     1.4100 
       5   268.0000     1.5290 
       6   268.0000     1.5290 
       7   340.0000     1.0900 
       8   340.0000     1.0900 
       9   340.0000     1.0900 
      10   340.0000     1.0900 
      11   340.0000     1.0900 
      12   340.0000     1.0900 
      13   340.0000     1.0900 
      14   340.0000     1.0900 
      15   340.0000     1.0900 
      16   340.0000     1.0900 

Angle Coeffs 

       1     80.000    120.400
       2     81.000    111.400
       3     83.000    116.900
       4     50.000    109.500
       5     50.000    109.500
       6     35.000    109.500
       7     35.000    109.500
       8     35.000    109.500
       9     35.000    109.500
      10     37.500    110.700
      11     37.500    110.700
      12     37.500    110.700
      13     37.500    110.700
      14     37.500    110.700
      15     37.500    110.700
      16     33.000    107.800
      17     33.000    107.800
      18     37.500    110.700
      19     37.500    110.700
      20     33.000    107.800
      21     33.000    107.800
      22     33.000    107.800
      23     33.000    107.800
      24     58.350    112.700
      25     83.000    123.400
      26     33.000    107.800
      27     33.000    107.800
      28     33.000    107.800

Dihedral Coeffs  

       1      4.669      5.124      0.000      0.000 
       2     -1.220     -0.126      0.422      0.000 
       3      0.000      0.000      0.000      0.000 
       4      0.000      0.000      0.468      0.000 
       5      0.000      0.000      0.468      0.000 
       6      0.000      0.000      0.468      0.000 
       7     -1.220     -0.126      0.422      0.000 
       8      0.000      0.000      0.300      0.000 
       9      0.000      0.000      0.132      0.000 
      10      0.000      0.000      0.300      0.000 
      11      0.000      0.000      0.000      0.000 
      12      0.000      0.000      0.132      0.000 
      13      0.000      0.000      0.300      0.000 
      14      0.000      5.124      0.000      0.000 
      15      0.000      0.000      0.468      0.000 
      16      0.000      0.000      0.300      0.000 
      17      0.000      0.000      0.300      0.000 
      18      0.000      0.000      0.468      0.000 
      19      0.000      0.000      0.300      0.000 
      20      0.000      0.000      0.300      0.000 
      21      0.000      0.000      0.300      0.000 
      22      0.000      0.000      0.300      0.000 
      23      0.000      0.000      0.300      0.000 
      24      0.000      0.000      0.300      0.000 
      25      0.000      0.000      0.300      0.000 
      26      0.000      0.000      0.468      0.000 
      27      0.000      0.000      0.000      0.000 
      28      0.000      0.000      0.132      0.000 
      29      0.000      0.000      0.198      0.000 

Improper Coeffs 

       1     10.500      -1       2 
       2      0.000      -1       2 
       3      0.000      -1       2 
       4      0.000      -1       2 
       5      0.000      -1       2 
       6      0.000      -1       2 
       7      0.000      -1       2 
       8      0.000      -1       2 
       9      0.000      -1       2 

Atoms 

    1  1  1  -0.417798  1.000  1.00000  0.00000
    2  1  2  0.487133  -0.499  1.00000  0.00000
    3  1  3  -0.378793  -1.185  1.00000  1.01196
    4  1  4  -0.365763  -0.963  0.99838  -1.27899
    5  1  5  0.107388  -2.395  0.99655  -1.43207
    6  1  6  -0.368675  -2.931  2.41643  -1.28466
    7  1  7  -0.362857  -2.697  0.45050  -2.82255
    8  1  8  0.144917  1.361  1.27434  0.99502
    9  1  9  0.141707  1.374  1.74165  -0.71100
    10  1  10  0.147258  1.366  0.00297  -0.25487
    11  1  11  0.126327  -2.856  0.33374  -0.68877
    12  1  12  0.118938  -2.439  3.09483  -1.99002
    13  1  13  0.137630  -2.731  2.80811  -0.28225
    14  1  14  0.117750  -4.011  2.45106  -1.45793
    15  1  15  0.122590  -2.218  1.06115  -3.59643
    16  1  16  0.120130  -3.774  0.42150  -3.01315
    17  1  17  0.122119  -2.294  -0.56265  -2.92893

Bonds 

     1      1      2      1
     2      2      3      2
     3      3      4      2
     4      4      5      4
     5      5      6      5
     6      6      7      5
     7      7      8      1
     8      8      9      1
     9      9     10      1
    10     10     11      5
    11     11     12      6
    12     12     13      6
    13     13     14      6
    14     14     15      7
    15     15     16      7
    16     16     17      7

Angles 

     1      1      1      2      3
     2      2      1      2      4
     3      3      2      4      5
     4      4      4      5      6
     5      5      4      5      7
     6      6      2      1      8
     7      7      2      1      9
     8      8      2      1     10
     9      9      4      5     11
    10     10      5      6     12
    11     11      5      6     13
    12     12      5      6     14
    13     13      5      7     15
    14     14      5      7     16
    15     15      5      7     17
    16     16      8      1     10
    17     17     12      6     13
    18     18      7      5     11
    19     19      6      5     11
    20     20     12      6     14
    21     21      8      1      9
    22     22     15      7     16
    23     23     15      7     17
    24     24      6      5      7
    25     25      3      2      4
    26     26     16      7     17
    27     27     13      6     14
    28     28      9      1     10

Dihedrals

     1      1      5      4      2      1 
     2      2      6      5      4      2 
     3      3      8      1      2      3 
     4      4     12      6      5      4 
     5      5     15      7      5      4 
     6      6     16      7      5      4 
     7      7      7      5      4      2 
     8      8     15      7      5      6 
     9      9     10      1      2      4 
    10     10     15      7      5     11 
    11     11      9      1      2      3 
    12     12      8      1      2      4 
    13     13     16      7      5      6 
    14     14      5      4      2      3 
    15     15     17      7      5      4 
    16     16     13      6      5      7 
    17     17     17      7      5      6 
    18     18     13      6      5      4 
    19     19     16      7      5     11 
    20     20     12      6      5      7 
    21     21     17      7      5     11 
    22     22     13      6      5     11 
    23     23     14      6      5     11 
    24     24     12      6      5     11 
    25     25     14      6      5      7 
    26     26     14      6      5      4 
    27     27     10      1      2      3 
    28     28      9      1      2      4 
    29     29     11      5      4      2 

Impropers

     1      1      2      1      3      4 
     2      2      5      4      6      7 
     3      3      1      9      8      2 
     4      4      1     10      8      2 
     5      5      5     11      4      6 
     6      6      6      5     12     13 
     7      7      6     12      5     14 
     8      8      7      5     15     16 
     9      9      7     17      5     15 

