LAMMPS data file Created by LigParGen - (Written by Leela S. Dodda)

      22 atoms
      22 bonds
      41 angles
      55 dihedrals
      13 impropers
 
      22 atom types
      22 bond types
      41 angle types
      55 dihedral types
      13 improper types
 
   -4.439190    45.560810 xlo xhi
   -1.063930    48.936070 ylo yhi
   -1.026440    48.973560 zlo zhi

Masses

       1     12.011  
       2     12.011  
       3     12.011  
       4     15.999  
       5     12.011  
       6     15.999  
       7     15.999  
       8     12.011  
       9     12.011  
      10     12.011  
      11      1.008  
      12      1.008  
      13      1.008  
      14      1.008  
      15      1.008  
      16      1.008  
      17      1.008  
      18      1.008  
      19      1.008  
      20      1.008  
      21      1.008  
      22      1.008  

Pair Coeffs 

       1      0.066  3.5000000 
       2      0.066  3.5000000 
       3      0.066  3.5000000 
       4      0.140  2.9000000 
       5      0.070  3.5500000 
       6      0.210  2.9600000 
       7      0.140  2.9000000 
       8      0.066  3.5000000 
       9      0.066  3.5000000 
      10      0.066  3.5000000 
      11      0.030  2.5000000 
      12      0.030  2.5000000 
      13      0.030  2.5000000 
      14      0.030  2.5000000 
      15      0.030  2.5000000 
      16      0.030  2.5000000 
      17      0.030  2.5000000 
      18      0.030  2.5000000 
      19      0.030  2.5000000 
      20      0.030  2.5000000 
      21      0.030  2.5000000 
      22      0.030  2.5000000 

Bond Coeffs 

       1   268.0000     1.5290 
       2   268.0000     1.5290 
       3   320.0000     1.4100 
       4   214.0000     1.3270 
       5   570.0000     1.2290 
       6   214.0000     1.3270 
       7   268.0000     1.5290 
       8   268.0000     1.5290 
       9   268.0000     1.5290 
      10   340.0000     1.0900 
      11   340.0000     1.0900 
      12   340.0000     1.0900 
      13   340.0000     1.0900 
      14   340.0000     1.0900 
      15   340.0000     1.0900 
      16   340.0000     1.0900 
      17   340.0000     1.0900 
      18   340.0000     1.0900 
      19   340.0000     1.0900 
      20   340.0000     1.0900 
      21   340.0000     1.0900 
      22   320.0000     1.4100 

Angle Coeffs 

       1     58.350    112.700
       2     50.000    109.500
       3     83.000    116.900
       4     83.000    123.400
       5     69.900    118.180
       6     58.350    112.700
       7     58.350    112.700
       8     58.350    112.700
       9     37.500    110.700
      10     37.500    110.700
      11     37.500    110.700
      12     37.500    110.700
      13     37.500    110.700
      14     37.500    110.700
      15     37.500    110.700
      16     37.500    110.700
      17     37.500    110.700
      18     37.500    110.700
      19     37.500    110.700
      20     37.500    110.700
      21     83.000    116.900
      22     37.500    110.700
      23     50.000    109.500
      24     33.000    107.800
      25     33.000    107.800
      26     58.350    112.700
      27     33.000    107.800
      28     33.000    107.800
      29     83.000    123.400
      30     33.000    107.800
      31     33.000    107.800
      32     50.000    109.500
      33     33.000    107.800
      34     37.500    110.700
      35     35.000    109.500
      36     33.000    107.800
      37     33.000    107.800
      38     33.000    107.800
      39     50.000    109.500
      40     50.000    109.500
      41     37.500    110.700

Dihedral Coeffs  

       1      1.711     -0.500      0.663      0.000 
       2     -1.220     -0.126      0.422      0.000 
       3      0.000      5.124      0.000      0.000 
       4      0.000      0.000      0.300      0.000 
       5      0.000      0.000      0.300      0.000 
       6      0.000      0.000      0.300      0.000 
       7      0.000      0.000      0.468      0.000 
       8     -1.220     -0.126      0.422      0.000 
       9      0.000      0.000      0.468      0.000 
      10      0.000      0.000      0.468      0.000 
      11      0.000      0.000      0.300      0.000 
      12      0.000      0.000      0.300      0.000 
      13     -1.220     -0.126      0.422      0.000 
      14      0.000      0.000      0.300      0.000 
      15      0.000      0.000      0.300      0.000 
      16      0.000      0.000      0.300      0.000 
      17      0.000      0.000      0.300      0.000 
      18      0.000      0.000      0.468      0.000 
      19      0.000      0.000      0.300      0.000 
      20      1.300     -0.200      0.200      0.000 
      21      0.000      0.000      0.300      0.000 
      22      0.000      0.000      0.300      0.000 
      23      0.000      0.000      0.468      0.000 
      24      1.711     -0.500      0.663      0.000 
      25      0.000      0.000      0.300      0.000 
      26      0.000      5.124      0.000      0.000 
      27      0.000      0.000      0.300      0.000 
      28      0.000      0.000      0.300      0.000 
      29      0.000      0.000      0.468      0.000 
      30     -0.550      0.000      0.000      0.000 
      31      4.669      5.124      0.000      0.000 
      32      1.300     -0.200      0.200      0.000 
      33      1.711     -0.500      0.663      0.000 
      34      0.000      0.000      0.468      0.000 
      35      0.000      0.000      0.300      0.000 
      36      0.000      0.000      0.468      0.000 
      37     -1.220     -0.126      0.422      0.000 
      38      0.000      0.000      0.300      0.000 
      39      0.000      0.000      0.300      0.000 
      40      0.000      0.000      0.300      0.000 
      41      0.000      0.000      0.300      0.000 
      42      0.000      0.000      0.300      0.000 
      43      0.000      0.000      0.468      0.000 
      44      0.000      0.000      0.300      0.000 
      45      1.711     -0.500      0.663      0.000 
      46      0.000      0.000      0.300      0.000 
      47      1.300     -0.200      0.200      0.000 
      48      0.000      0.000      0.300      0.000 
      49      4.669      5.124      0.000      0.000 
      50      0.000      0.000      0.198      0.000 
      51      0.000      0.000      0.300      0.000 
      52      0.000      0.000      0.300      0.000 
      53     -1.220     -0.126      0.422      0.000 
      54      0.000      0.000      0.300      0.000 
      55      0.000      0.000      0.300      0.000 

Improper Coeffs 

       1     10.500      -1       2 
       2      0.000      -1       2 
       3      0.000      -1       2 
       4      0.000      -1       2 
       5      0.000      -1       2 
       6      0.000      -1       2 
       7      0.000      -1       2 
       8      0.000      -1       2 
       9      0.000      -1       2 
      10      0.000      -1       2 
      11      0.000      -1       2 
      12      0.000      -1       2 
      13      0.000      -1       2 

Atoms 

    1  1  1  -0.364602  1.000  1.00000  0.00000
    2  1  2  -0.224526  -0.524  1.00000  0.00000
    3  1  3  0.095169  -1.097  1.00000  1.41864
    4  1  4  -0.371593  -0.758  2.21832  2.07351
    5  1  5  0.630808  -1.747  2.47622  2.97512
    6  1  6  -0.382530  -1.680  3.31943  3.85135
    7  1  7  -0.375436  -2.824  1.66333  2.76376
    8  1  8  0.223214  -2.613  0.97009  1.53533
    9  1  9  -0.369077  -3.369  1.70866  0.42705
    10  1  10  -0.375980  -3.152  -0.44972  1.69119
    11  1  11  0.120227  1.376  1.06629  -1.02644
    12  1  12  0.116826  1.391  0.08063  0.44564
    13  1  13  0.140483  1.399  1.85321  0.55801
    14  1  14  0.116406  -0.883  0.12570  -0.55404
    15  1  15  0.126650  -0.846  1.90013  -0.53691
    16  1  16  0.116730  -0.638  0.18610  1.99616
    17  1  17  0.131349  -3.027  2.74497  0.33122
    18  1  18  0.134962  -4.439  1.76065  0.65844
    19  1  19  0.124010  -3.254  1.21128  -0.54164
    20  1  20  0.129482  -2.720  -0.93701  2.57325
    21  1  21  0.123231  -2.939  -1.06393  0.81133
    22  1  22  0.134200  -4.236  -0.43524  1.85602

Bonds 

     1      1      2      1
     2      2      3      2
     3      3      4      3
     4      4      5      4
     5      5      6      5
     6      6      7      5
     7      7      8      3
     8      8      9      8
     9      9     10      8
    10     10     11      1
    11     11     12      1
    12     12     13      1
    13     13     14      2
    14     14     15      2
    15     15     16      3
    16     16     17      9
    17     17     18      9
    18     18     19      9
    19     19     20     10
    20     20     21     10
    21     21     22     10
    22     22      8      7

Angles 

     1      1      1      2      3
     2      2      2      3      4
     3      3      3      4      5
     4      4      4      5      6
     5      5      4      5      7
     6      6      2      3      8
     7      7      3      8      9
     8      8      3      8     10
     9      9      2      1     11
    10     10      2      1     12
    11     11      2      1     13
    12     12      1      2     14
    13     13      1      2     15
    14     14      2      3     16
    15     15      8      9     17
    16     16      8      9     18
    17     17      8      9     19
    18     18      8     10     20
    19     19      8     10     21
    20     20      8     10     22
    21     21      5      7      8
    22     22      3      2     14
    23     23      3      8      7
    24     24     11      1     13
    25     25     17      9     18
    26     26      9      8     10
    27     27     18      9     19
    28     28     11      1     12
    29     29      6      5      7
    30     30     12      1     13
    31     31     14      2     15
    32     32      7      8     10
    33     33     21     10     22
    34     34      3      2     15
    35     35      4      3     16
    36     36     20     10     22
    37     37     20     10     21
    38     38     17      9     19
    39     39      7      8      9
    40     40      4      3      8
    41     41      8      3     16

Dihedrals

     1      1      4      3      2      1 
     2      2      5      4      3      2 
     3      3      6      5      4      3 
     4      4     11      1      2      3 
     5      5     17      9      8      3 
     6      6     20     10      8      3 
     7      7     17      9      8      7 
     8      8     10      8      7      5 
     9      9     22     10      8      7 
    10     10     15      2      3      4 
    11     11     20     10      8      9 
    12     12     18      9      8     10 
    13     13      9      8      7      5 
    14     14     14      2      3      8 
    15     15     14      2      1     13 
    16     16     15      2      1     12 
    17     17     16      3      8     10 
    18     18     19      9      8      7 
    19     19     16      3      8      9 
    20     20     10      8      3      2 
    21     21     19      9      8      3 
    22     22     22     10      8      9 
    23     23     20     10      8      7 
    24     24     10      8      3      4 
    25     25     15      2      3      8 
    26     26      8      7      5      6 
    27     27     14      2      1     11 
    28     28     12      1      2      3 
    29     29     16      3      8      7 
    30     30      7      8      3      4 
    31     31      7      5      4      3 
    32     32      9      8      3      2 
    33     33      7      8      3      2 
    34     34     21     10      8      7 
    35     35     16      3      2      1 
    36     36     14      2      3      4 
    37     37      8      3      4      5 
    38     38     21     10      8      3 
    39     39     16      3      2     14 
    40     40     19      9      8     10 
    41     41     13      1      2      3 
    42     42     22     10      8      3 
    43     43     18      9      8      7 
    44     44     18      9      8      3 
    45     45      9      8      3      4 
    46     46     21     10      8      9 
    47     47      8      3      2      1 
    48     48     16      3      2     15 
    49     49      8      7      5      4 
    50     50     16      3      4      5 
    51     51     15      2      1     11 
    52     52     14      2      1     12 
    53     53      5      7      8      3 
    54     54     17      9      8     10 
    55     55     15      2      1     13 

Impropers

     1      1      5      4      6      7 
     2      2      3      2      4      8 
     3      3      8      9      3      7 
     4      4      8     10      3      7 
     5      5      1      2     11     12 
     6      6      1      2     11     13 
     7      7      2      1      3     14 
     8      8      2      1      3     15 
     9      9      3      2      4     16 
    10     10      9     18     17      8 
    11     11      9     17     19      8 
    12     12     10     20     21      8 
    13     13     10     20     22      8 

