LAMMPS data file Created by LigParGen - (Written by Leela S. Dodda)

      20 atoms
      20 bonds
      35 angles
      42 dihedrals
      11 impropers
 
      20 atom types
      20 bond types
      35 angle types
      42 dihedral types
      11 improper types
 
   -3.628050    46.371950 xlo xhi
   -3.219440    46.780560 ylo yhi
   -1.009190    48.990810 zlo zhi

Masses

       1     12.011  
       2     12.011  
       3     12.011  
       4     15.999  
       5     12.011  
       6     15.999  
       7     15.999  
       8     12.011  
       9     12.011  
      10     12.011  
      11      1.008  
      12      1.008  
      13      1.008  
      14      1.008  
      15      1.008  
      16      1.008  
      17      1.008  
      18      1.008  
      19      1.008  
      20      1.008  

Pair Coeffs 

       1      0.066  3.5000000 
       2      0.066  3.5000000 
       3      0.070  3.5500000 
       4      0.140  2.9000000 
       5      0.070  3.5500000 
       6      0.210  2.9600000 
       7      0.140  2.9000000 
       8      0.070  3.5500000 
       9      0.066  3.5000000 
      10      0.066  3.5000000 
      11      0.030  2.5000000 
      12      0.030  2.5000000 
      13      0.030  2.5000000 
      14      0.030  2.5000000 
      15      0.030  2.5000000 
      16      0.030  2.5000000 
      17      0.030  2.5000000 
      18      0.030  2.5000000 
      19      0.030  2.5000000 
      20      0.030  2.5000000 

Bond Coeffs 

       1   268.0000     1.5290 
       2   317.0000     1.5040 
       3   340.0000     1.3600 
       4   214.0000     1.3270 
       5   570.0000     1.2290 
       6   214.0000     1.3270 
       7   512.0000     1.3750 
       8   317.0000     1.5040 
       9   268.0000     1.5290 
      10   340.0000     1.0900 
      11   340.0000     1.0900 
      12   340.0000     1.0900 
      13   340.0000     1.0900 
      14   340.0000     1.0900 
      15   340.0000     1.0900 
      16   340.0000     1.0900 
      17   340.0000     1.0900 
      18   340.0000     1.0900 
      19   340.0000     1.0900 
      20   340.0000     1.3600 

Angle Coeffs 

       1     63.000    114.000
       2     70.000    121.600
       3     83.000    116.900
       4     83.000    123.400
       5     69.900    118.180
       6     70.000    120.000
       7     70.000    120.000
       8     63.000    114.000
       9     37.500    110.700
      10     37.500    110.700
      11     37.500    110.700
      12     37.500    110.700
      13     37.500    110.700
      14     35.000    109.500
      15     35.000    109.500
      16     37.500    110.700
      17     37.500    110.700
      18     37.500    110.700
      19     83.000    116.900
      20     37.500    110.700
      21     35.000    109.500
      22     70.000    120.000
      23     33.000    107.800
      24     33.000    107.800
      25     33.000    107.800
      26     37.500    110.700
      27     33.000    107.800
      28     83.000    123.400
      29     33.000    107.800
      30     33.000    107.800
      31     33.000    107.800
      32     33.000    107.800
      33     35.000    109.500
      34     70.000    121.600
      35     70.000    120.000

Dihedral Coeffs  

       1      0.000      0.000      0.000      0.000 
       2      0.000      7.250      0.000      0.000 
       3      0.000      5.124      0.000      0.000 
       4      0.000      0.000      0.000      0.000 
       5      0.000      0.000      0.462      0.000 
       6      0.000      0.000      0.462      0.000 
       7      0.000      0.000      0.000      0.000 
       8      0.000      0.000      0.300      0.000 
       9      0.000      0.000      0.000      0.000 
      10      0.000      7.250      0.000      0.000 
      11      0.000      0.000      0.300      0.000 
      12      0.000      0.000      0.000      0.000 
      13      0.000      0.000      0.300      0.000 
      14      0.000      0.000      0.300      0.000 
      15      0.000      0.000      0.000      0.000 
      16      0.000     10.750      0.000      0.000 
      17      0.000      0.000      0.300      0.000 
      18      0.000      0.000      0.462      0.000 
      19      0.000      5.124      0.000      0.000 
      20      4.669      5.124      0.000      0.000 
      21      0.000      0.000      0.462      0.000 
      22      0.000     10.750      0.000      0.000 
      23      0.000     10.750      0.000      0.000 
      24      0.000      0.000      0.000      0.000 
      25      0.000      0.000      0.000      0.000 
      26      0.000      0.000      0.000      0.000 
      27      0.000      0.000      0.300      0.000 
      28      0.000      7.250      0.000      0.000 
      29      0.000      0.000      0.300      0.000 
      30      0.000      0.000      0.462      0.000 
      31      0.000      0.000      0.000      0.000 
      32      0.000     10.750      0.000      0.000 
      33      0.000      0.000      0.000      0.000 
      34      0.000      0.000      0.300      0.000 
      35      0.000      0.000      0.300      0.000 
      36      4.669      5.124      0.000      0.000 
      37      0.000      0.000      0.000      0.000 
      38      0.000      0.000      0.300      0.000 
      39      0.000      0.000      0.300      0.000 
      40      0.000      0.000      0.300      0.000 
      41      0.000      7.250      0.000      0.000 
      42      0.000      0.000      0.462      0.000 

Improper Coeffs 

       1     10.500      -1       2 
       2      2.500      -1       2 
       3      2.500      -1       2 
       4      0.000      -1       2 
       5      0.000      -1       2 
       6      0.000      -1       2 
       7      0.000      -1       2 
       8      0.000      -1       2 
       9      0.000      -1       2 
      10      0.000      -1       2 
      11      0.000      -1       2 

Atoms 

    1  1  1  -0.357299  1.000  1.00000  0.00000
    2  1  2  -0.278213  -0.522  1.00000  0.00000
    3  1  3  0.240377  -1.085  1.00000  1.38202
    4  1  4  -0.368897  -0.748  2.05427  2.21321
    5  1  5  0.622824  -1.432  1.72696  3.37243
    6  1  6  -0.383704  -1.400  2.41846  4.38369
    7  1  7  -0.369474  -2.156  0.54947  3.28359
    8  1  8  0.242107  -1.882  0.14493  1.98948
    9  1  9  -0.277052  -2.541  -1.10073  1.49641
    10  1  10  -0.357756  -2.147  -2.33186  2.30035
    11  1  11  0.122125  1.377  0.80465  -1.00919
    12  1  12  0.123769  1.402  0.23091  0.66793
    13  1  13  0.135957  1.391  1.97176  0.31961
    14  1  14  0.127366  -0.871  0.12543  -0.55859
    15  1  15  0.134542  -0.885  1.88273  -0.53919
    16  1  16  0.127602  -2.299  -1.27796  0.44340
    17  1  17  0.134733  -3.628  -0.96951  1.55113
    18  1  18  0.122517  -1.066  -2.50014  2.26631
    19  1  19  0.121880  -2.641  -3.21944  1.89041
    20  1  20  0.136596  -2.448  -2.23612  3.34938

Bonds 

     1      1      2      1
     2      2      3      2
     3      3      4      3
     4      4      5      4
     5      5      6      5
     6      6      7      5
     7      7      8      3
     8      8      9      8
     9      9     10      9
    10     10     11      1
    11     11     12      1
    12     12     13      1
    13     13     14      2
    14     14     15      2
    15     15     16      9
    16     16     17      9
    17     17     18     10
    18     18     19     10
    19     19     20     10
    20     20      8      7

Angles 

     1      1      1      2      3
     2      2      2      3      4
     3      3      3      4      5
     4      4      4      5      6
     5      5      4      5      7
     6      6      2      3      8
     7      7      3      8      9
     8      8      8      9     10
     9      9      2      1     11
    10     10      2      1     12
    11     11      2      1     13
    12     12      1      2     14
    13     13      1      2     15
    14     14      8      9     16
    15     15      8      9     17
    16     16      9     10     18
    17     17      9     10     19
    18     18      9     10     20
    19     19      5      7      8
    20     20     10      9     16
    21     21      3      2     14
    22     22      3      8      7
    23     23     11      1     13
    24     24     18     10     20
    25     25     16      9     17
    26     26     10      9     17
    27     27     11      1     12
    28     28      6      5      7
    29     29     12      1     13
    30     30     14      2     15
    31     31     18     10     19
    32     32     19     10     20
    33     33      3      2     15
    34     34      7      8      9
    35     35      4      3      8

Dihedrals

     1      1      4      3      2      1 
     2      2      5      4      3      2 
     3      3      6      5      4      3 
     4      4     10      9      8      3 
     5      5     11      1      2      3 
     6      6     18     10      9      8 
     7      7     17      9      8      7 
     8      8     20     10      9     17 
     9      9     15      2      3      4 
    10     10      9      8      7      5 
    11     11     18     10      9     17 
    12     12     14      2      3      8 
    13     13     14      2      1     13 
    14     14     15      2      1     12 
    15     15     15      2      3      8 
    16     16      7      8      3      4 
    17     17     14      2      1     11 
    18     18     12      1      2      3 
    19     19      8      7      5      6 
    20     20      7      5      4      3 
    21     21     20     10      9      8 
    22     22      9      8      3      2 
    23     23      7      8      3      2 
    24     24     10      9      8      7 
    25     25     17      9      8      3 
    26     26     14      2      3      4 
    27     27     18     10      9     16 
    28     28      8      3      4      5 
    29     29     19     10      9     16 
    30     30     13      1      2      3 
    31     31     16      9      8      3 
    32     32      9      8      3      4 
    33     33      8      3      2      1 
    34     34     20     10      9     16 
    35     35     15      2      1     13 
    36     36      8      7      5      4 
    37     37     16      9      8      7 
    38     38     19     10      9     17 
    39     39     15      2      1     11 
    40     40     14      2      1     12 
    41     41      5      7      8      3 
    42     42     19     10      9      8 

Impropers

     1      1      5      4      6      7 
     2      2      3      2      4      8 
     3      3      8      9      3      7 
     4      4      1      2     11     12 
     5      5      1      2     11     13 
     6      6      2      1      3     14 
     7      7      2      1      3     15 
     8      8      9     10      8     16 
     9      9      9     17     10      8 
    10     10     10      9     19     18 
    11     11     10      9     20     18 

