LAMMPS data file Created by LigParGen - (Written by Leela S. Dodda)

      24 atoms
      23 bonds
      41 angles
      46 dihedrals
      13 impropers
 
      24 atom types
      23 bond types
      41 angle types
      46 dihedral types
      13 improper types
 
   -7.236100    42.763900 xlo xhi
   -1.707920    48.292080 ylo yhi
   -1.021380    48.978620 zlo zhi

Masses

       1     12.011  
       2     12.011  
       3     12.011  
       4     15.999  
       5     12.011  
       6     15.999  
       7     15.999  
       8     12.011  
       9     12.011  
      10     12.011  
      11      1.008  
      12      1.008  
      13      1.008  
      14      1.008  
      15      1.008  
      16      1.008  
      17      1.008  
      18      1.008  
      19      1.008  
      20      1.008  
      21      1.008  
      22      1.008  
      23      1.008  
      24      1.008  

Pair Coeffs 

       1      0.066  3.5000000 
       2      0.066  3.5000000 
       3      0.066  3.5000000 
       4      0.140  2.9000000 
       5      0.070  3.5500000 
       6      0.210  2.9600000 
       7      0.140  2.9000000 
       8      0.066  3.5000000 
       9      0.066  3.5000000 
      10      0.066  3.5000000 
      11      0.030  2.5000000 
      12      0.030  2.5000000 
      13      0.030  2.5000000 
      14      0.030  2.5000000 
      15      0.030  2.5000000 
      16      0.030  2.5000000 
      17      0.030  2.5000000 
      18      0.030  2.5000000 
      19      0.030  2.5000000 
      20      0.030  2.5000000 
      21      0.030  2.5000000 
      22      0.030  2.5000000 
      23      0.030  2.5000000 
      24      0.030  2.5000000 

Bond Coeffs 

       1   268.0000     1.5290 
       2   268.0000     1.5290 
       3   320.0000     1.4100 
       4   214.0000     1.3270 
       5   570.0000     1.2290 
       6   214.0000     1.3270 
       7   320.0000     1.4100 
       8   268.0000     1.5290 
       9   268.0000     1.5290 
      10   340.0000     1.0900 
      11   340.0000     1.0900 
      12   340.0000     1.0900 
      13   340.0000     1.0900 
      14   340.0000     1.0900 
      15   340.0000     1.0900 
      16   340.0000     1.0900 
      17   340.0000     1.0900 
      18   340.0000     1.0900 
      19   340.0000     1.0900 
      20   340.0000     1.0900 
      21   340.0000     1.0900 
      22   340.0000     1.0900 
      23   340.0000     1.0900 

Angle Coeffs 

       1     58.350    112.700
       2     50.000    109.500
       3     83.000    116.900
       4     83.000    123.400
       5     69.900    118.180
       6     83.000    116.900
       7     50.000    109.500
       8     50.000    109.500
       9     37.500    110.700
      10     37.500    110.700
      11     37.500    110.700
      12     37.500    110.700
      13     37.500    110.700
      14     37.500    110.700
      15     37.500    110.700
      16     35.000    109.500
      17     37.500    110.700
      18     37.500    110.700
      19     37.500    110.700
      20     37.500    110.700
      21     37.500    110.700
      22     37.500    110.700
      23     37.500    110.700
      24     37.500    110.700
      25     33.000    107.800
      26     33.000    107.800
      27     33.000    107.800
      28     33.000    107.800
      29     58.350    112.700
      30     33.000    107.800
      31     33.000    107.800
      32     83.000    123.400
      33     33.000    107.800
      34     37.500    110.700
      35     37.500    110.700
      36     33.000    107.800
      37     35.000    109.500
      38     35.000    109.500
      39     33.000    107.800
      40     33.000    107.800
      41     33.000    107.800

Dihedral Coeffs  

       1      1.711     -0.500      0.663      0.000 
       2     -1.220     -0.126      0.422      0.000 
       3      0.000      5.124      0.000      0.000 
       4      4.669      5.124      0.000      0.000 
       5     -1.220     -0.126      0.422      0.000 
       6      0.000      0.000      0.300      0.000 
       7      0.000      0.000      0.468      0.000 
       8      0.000      0.000      0.468      0.000 
       9      0.000      0.000      0.300      0.000 
      10     -1.220     -0.126      0.422      0.000 
      11      0.000      0.000      0.468      0.000 
      12      0.000      0.000      0.468      0.000 
      13      0.000      0.000      0.300      0.000 
      14      0.000      0.000      0.300      0.000 
      15      0.000      0.000      0.300      0.000 
      16      0.000      0.000      0.300      0.000 
      17      0.000      0.000      0.300      0.000 
      18      0.000      0.000      0.300      0.000 
      19      0.000      0.000      0.300      0.000 
      20      0.000      0.000      0.300      0.000 
      21      0.000      0.000      0.300      0.000 
      22      0.000      0.000      0.300      0.000 
      23      0.000      0.000      0.300      0.000 
      24      0.000      5.124      0.000      0.000 
      25      0.000      0.000      0.198      0.000 
      26      4.669      5.124      0.000      0.000 
      27      0.000      0.000      0.300      0.000 
      28      0.000      0.000      0.300      0.000 
      29      0.000      0.000      0.300      0.000 
      30      0.000      0.000      0.300      0.000 
      31      0.000      0.000      0.300      0.000 
      32      0.000      0.000      0.468      0.000 
      33      0.000      0.000      0.300      0.000 
      34      0.000      0.000      0.198      0.000 
      35      0.000      0.000      0.300      0.000 
      36      0.000      0.000      0.300      0.000 
      37      0.000      0.000      0.300      0.000 
      38      0.000      0.000      0.300      0.000 
      39      0.000      0.000      0.300      0.000 
      40      0.000      0.000      0.468      0.000 
      41      0.000      0.000      0.468      0.000 
      42      0.000      0.000      0.300      0.000 
      43      0.000      0.000      0.198      0.000 
      44      0.000      0.000      0.468      0.000 
      45      0.000      0.000      0.300      0.000 
      46      0.000      0.000      0.300      0.000 

Improper Coeffs 

       1     10.500      -1       2 
       2      0.000      -1       2 
       3      0.000      -1       2 
       4      0.000      -1       2 
       5      0.000      -1       2 
       6      0.000      -1       2 
       7      0.000      -1       2 
       8      0.000      -1       2 
       9      0.000      -1       2 
      10      0.000      -1       2 
      11      0.000      -1       2 
      12      0.000      -1       2 
      13      0.000      -1       2 

Atoms 

    1  1  1  -0.363294  1.000  1.00000  0.00000
    2  1  2  -0.212865  -0.521  1.00000  0.00000
    3  1  3  -0.035853  -1.057  1.00000  1.42284
    4  1  4  -0.367451  -2.488  1.06137  1.43867
    5  1  5  0.635966  -3.117  -0.07204  1.83938
    6  1  6  -0.389901  -2.612  -1.17627  1.94064
    7  1  7  -0.373611  -4.382  0.26357  2.20401
    8  1  8  0.112399  -5.138  -0.76544  2.86970
    9  1  9  -0.373422  -4.647  -0.93693  4.30613
    10  1  10  -0.364302  -6.598  -0.32631  2.86798
    11  1  11  0.122626  1.389  1.00129  -1.02138
    12  1  12  0.120837  1.389  0.11294  0.51238
    13  1  13  0.115714  1.390  1.88676  0.51384
    14  1  14  0.123494  -0.894  0.12571  -0.54539
    15  1  15  0.118681  -0.892  1.88081  -0.53802
    16  1  16  0.118793  -0.703  1.89318  1.94841
    17  1  17  0.136771  -0.675  0.13572  1.98240
    18  1  18  0.125746  -5.051  -1.70792  2.31575
    19  1  19  0.121548  -4.685  0.01461  4.84784
    20  1  20  0.138018  -3.604  -1.26790  4.33299
    21  1  21  0.118713  -5.250  -1.67332  4.84491
    22  1  22  0.125365  -6.719  0.63229  3.38571
    23  1  23  0.120516  -7.236  -1.06892  3.35776
    24  1  24  0.125515  -6.954  -0.17796  1.84414

Bonds 

     1      1      2      1
     2      2      3      2
     3      3      4      3
     4      4      5      4
     5      5      6      5
     6      6      7      5
     7      7      8      7
     8      8      9      8
     9      9     10      8
    10     10     11      1
    11     11     12      1
    12     12     13      1
    13     13     14      2
    14     14     15      2
    15     15     16      3
    16     16     17      3
    17     17     18      8
    18     18     19      9
    19     19     20      9
    20     20     21      9
    21     21     22     10
    22     22     23     10
    23     23     24     10

Angles 

     1      1      1      2      3
     2      2      2      3      4
     3      3      3      4      5
     4      4      4      5      6
     5      5      4      5      7
     6      6      5      7      8
     7      7      7      8      9
     8      8      7      8     10
     9      9      2      1     11
    10     10      2      1     12
    11     11      2      1     13
    12     12      1      2     14
    13     13      1      2     15
    14     14      2      3     16
    15     15      2      3     17
    16     16      7      8     18
    17     17      8      9     19
    18     18      8      9     20
    19     19      8      9     21
    20     20      8     10     22
    21     21      8     10     23
    22     22      8     10     24
    23     23      3      2     14
    24     24      3      2     15
    25     25     11      1     13
    26     26     19      9     21
    27     27     22     10     23
    28     28     14      2     15
    29     29      9      8     10
    30     30     22     10     24
    31     31     11      1     12
    32     32      6      5      7
    33     33     12      1     13
    34     34      9      8     18
    35     35     10      8     18
    36     36     23     10     24
    37     37      4      3     16
    38     38      4      3     17
    39     39     16      3     17
    40     40     20      9     21
    41     41     19      9     20

Dihedrals

     1      1      4      3      2      1 
     2      2      5      4      3      2 
     3      3      6      5      4      3 
     4      4      8      7      5      4 
     5      5      9      8      7      5 
     6      6     11      1      2      3 
     7      7     19      9      8      7 
     8      8     22     10      8      7 
     9      9     20      9      8     18 
    10     10     10      8      7      5 
    11     11     21      9      8      7 
    12     12     15      2      3      4 
    13     13     14      2      1     13 
    14     14     20      9      8     10 
    15     15     15      2      1     12 
    16     16     17      3      2     14 
    17     17     22     10      8      9 
    18     18     19      9      8     18 
    19     19     21      9      8     18 
    20     20     17      3      2     15 
    21     21     14      2      1     11 
    22     22     12      1      2      3 
    23     23     23     10      8      9 
    24     24      8      7      5      6 
    25     25     18      8      7      5 
    26     26      7      5      4      3 
    27     27     24     10      8     18 
    28     28     22     10      8     18 
    29     29     15      2      1     11 
    30     30     19      9      8     10 
    31     31     16      3      2      1 
    32     32     14      2      3      4 
    33     33     24     10      8      9 
    34     34     17      3      4      5 
    35     35     17      3      2      1 
    36     36     23     10      8     18 
    37     37     16      3      2     14 
    38     38     13      1      2      3 
    39     39     21      9      8     10 
    40     40     24     10      8      7 
    41     41     23     10      8      7 
    42     42     16      3      2     15 
    43     43     16      3      4      5 
    44     44     20      9      8      7 
    45     45     14      2      1     12 
    46     46     15      2      1     13 

Impropers

     1      1      5      4      6      7 
     2      2      8      9     10      7 
     3      3      1      2     11     12 
     4      4      1      2     11     13 
     5      5      2      1      3     14 
     6      6      2      1      3     15 
     7      7      3      2      4     16 
     8      8      3     17      2      4 
     9      9      8      9     18      7 
    10     10      9     19     20      8 
    11     11      9     19     21      8 
    12     12     10     22     23      8 
    13     13     10      8     22     24 

