LAMMPS data file Created by LigParGen - (Written by Leela S. Dodda)

      18 atoms
      17 bonds
      29 angles
      28 dihedrals
       9 impropers
 
      18 atom types
      17 bond types
      29 angle types
      28 dihedral types
       9 improper types
 
   -3.809460    46.190540 xlo xhi
   -2.111330    47.888670 ylo yhi
   -1.015440    48.984560 zlo zhi

Masses

       1     12.011  
       2     12.011  
       3     15.999  
       4     12.011  
       5     15.999  
       6     15.999  
       7     12.011  
       8     12.011  
       9      1.008  
      10      1.008  
      11      1.008  
      12      1.008  
      13      1.008  
      14      1.008  
      15      1.008  
      16      1.008  
      17      1.008  
      18      1.008  

Pair Coeffs 

       1      0.066  3.5000000 
       2      0.066  3.5000000 
       3      0.140  2.9000000 
       4      0.070  3.5500000 
       5      0.210  2.9600000 
       6      0.140  2.9000000 
       7      0.066  3.5000000 
       8      0.066  3.5000000 
       9      0.030  2.5000000 
      10      0.030  2.5000000 
      11      0.030  2.5000000 
      12      0.030  2.5000000 
      13      0.030  2.5000000 
      14      0.030  2.5000000 
      15      0.030  2.5000000 
      16      0.030  2.5000000 
      17      0.030  2.5000000 
      18      0.030  2.5000000 

Bond Coeffs 

       1   268.0000     1.5290 
       2   320.0000     1.4100 
       3   214.0000     1.3270 
       4   570.0000     1.2290 
       5   214.0000     1.3270 
       6   320.0000     1.4100 
       7   268.0000     1.5290 
       8   340.0000     1.0900 
       9   340.0000     1.0900 
      10   340.0000     1.0900 
      11   340.0000     1.0900 
      12   340.0000     1.0900 
      13   340.0000     1.0900 
      14   340.0000     1.0900 
      15   340.0000     1.0900 
      16   340.0000     1.0900 
      17   340.0000     1.0900 

Angle Coeffs 

       1     50.000    109.500
       2     83.000    116.900
       3     83.000    123.400
       4     69.900    118.180
       5     83.000    116.900
       6     50.000    109.500
       7     37.500    110.700
       8     37.500    110.700
       9     37.500    110.700
      10     37.500    110.700
      11     37.500    110.700
      12     35.000    109.500
      13     35.000    109.500
      14     37.500    110.700
      15     37.500    110.700
      16     37.500    110.700
      17     83.000    123.400
      18     33.000    107.800
      19     33.000    107.800
      20     37.500    110.700
      21     33.000    107.800
      22     33.000    107.800
      23     33.000    107.800
      24     35.000    109.500
      25     33.000    107.800
      26     35.000    109.500
      27     33.000    107.800
      28     33.000    107.800
      29     37.500    110.700

Dihedral Coeffs  

       1     -1.220     -0.126      0.422      0.000 
       2      0.000      5.124      0.000      0.000 
       3      4.669      5.124      0.000      0.000 
       4     -1.220     -0.126      0.422      0.000 
       5      0.000      0.000      0.468      0.000 
       6      0.000      0.000      0.468      0.000 
       7      0.000      0.000      0.300      0.000 
       8      0.000      0.000      0.300      0.000 
       9      4.669      5.124      0.000      0.000 
      10      0.000      0.000      0.468      0.000 
      11      0.000      0.000      0.300      0.000 
      12      0.000      0.000      0.198      0.000 
      13      0.000      0.000      0.198      0.000 
      14      0.000      0.000      0.300      0.000 
      15      0.000      0.000      0.300      0.000 
      16      0.000      0.000      0.300      0.000 
      17      0.000      0.000      0.300      0.000 
      18      0.000      0.000      0.300      0.000 
      19      0.000      0.000      0.468      0.000 
      20      0.000      0.000      0.300      0.000 
      21      0.000      0.000      0.468      0.000 
      22      0.000      0.000      0.468      0.000 
      23      0.000      0.000      0.198      0.000 
      24      0.000      0.000      0.300      0.000 
      25      0.000      0.000      0.300      0.000 
      26      0.000      5.124      0.000      0.000 
      27      0.000      0.000      0.198      0.000 
      28      0.000      0.000      0.300      0.000 

Improper Coeffs 

       1     10.500      -1       2 
       2      0.000      -1       2 
       3      0.000      -1       2 
       4      0.000      -1       2 
       5      0.000      -1       2 
       6      0.000      -1       2 
       7      0.000      -1       2 
       8      0.000      -1       2 
       9      0.000      -1       2 

Atoms 

    1  1  1  -0.363117  1.000  1.00000  0.00000
    2  1  2  -0.046471  -0.515  1.00000  0.00000
    3  1  3  -0.357047  -0.934  1.00000  1.36667
    4  1  4  0.636189  -1.189  -0.21376  1.90557
    5  1  5  -0.393303  -1.271  -1.27184  1.30329
    6  1  6  -0.358514  -1.334  -0.03181  3.24090
    7  1  7  -0.046775  -1.849  -1.15158  3.96654
    8  1  8  -0.362097  -3.348  -0.95768  4.07592
    9  1  9  0.118814  1.398  1.04671  -1.01544
    10  1  10  0.131321  1.383  0.10109  0.49522
    11  1  11  0.129394  1.374  1.85605  0.57271
    12  1  12  0.142512  -0.919  0.15210  -0.56465
    13  1  13  0.124049  -0.895  1.91575  -0.46437
    14  1  14  0.123843  -1.390  -1.14083  4.96055
    15  1  15  0.142667  -1.600  -2.11133  3.49885
    16  1  16  0.129329  -3.566  0.00341  4.55480
    17  1  17  0.118110  -3.809  -1.76332  4.65665
    18  1  18  0.131098  -3.802  -0.92138  3.08064

Bonds 

     1      1      2      1
     2      2      3      2
     3      3      4      3
     4      4      5      4
     5      5      6      4
     6      6      7      6
     7      7      8      7
     8      8      9      1
     9      9     10      1
    10     10     11      1
    11     11     12      2
    12     12     13      2
    13     13     14      7
    14     14     15      7
    15     15     16      8
    16     16     17      8
    17     17     18      8

Angles 

     1      1      1      2      3
     2      2      2      3      4
     3      3      3      4      5
     4      4      3      4      6
     5      5      4      6      7
     6      6      6      7      8
     7      7      2      1      9
     8      8      2      1     10
     9      9      2      1     11
    10     10      1      2     12
    11     11      1      2     13
    12     12      6      7     14
    13     13      6      7     15
    14     14      7      8     16
    15     15      7      8     17
    16     16      7      8     18
    17     17      5      4      6
    18     18     14      7     15
    19     19     12      2     13
    20     20      8      7     15
    21     21     17      8     18
    22     22     16      8     18
    23     23     16      8     17
    24     24      3      2     12
    25     25     10      1     11
    26     26      3      2     13
    27     27      9      1     10
    28     28      9      1     11
    29     29      8      7     14

Dihedrals

     1      1      4      3      2      1 
     2      2      5      4      3      2 
     3      3      7      6      4      3 
     4      4      8      7      6      4 
     5      5      9      1      2      3 
     6      6     16      8      7      6 
     7      7     17      8      7     14 
     8      8     16      8      7     15 
     9      9      6      4      3      2 
    10     10     17      8      7      6 
    11     11     13      2      1     11 
    12     12     12      2      3      4 
    13     13     13      2      3      4 
    14     14     18      8      7     15 
    15     15     12      2      1     11 
    16     16     13      2      1     10 
    17     17     18      8      7     14 
    18     18     17      8      7     15 
    19     19     18      8      7      6 
    20     20     16      8      7     14 
    21     21     10      1      2      3 
    22     22     11      1      2      3 
    23     23     14      7      6      4 
    24     24     13      2      1      9 
    25     25     12      2      1     10 
    26     26      7      6      4      5 
    27     27     15      7      6      4 
    28     28     12      2      1      9 

Impropers

     1      1      4      3      5      6 
     2      2      1     10      9      2 
     3      3      1      2     11      9 
     4      4      2      1      3     12 
     5      5      2      1      3     13 
     6      6      7      8     14      6 
     7      7      7      8     15      6 
     8      8      8     17     16      7 
     9      9      8     18     16      7 

