LAMMPS data file Created by LigParGen - (Written by Leela S. Dodda)

      23 atoms
      22 bonds
      40 angles
      47 dihedrals
      13 impropers
 
      23 atom types
      22 bond types
      40 angle types
      47 dihedral types
      13 improper types
 
   -4.893630    45.106370 xlo xhi
   -1.365820    48.634180 ylo yhi
   -1.024540    48.975460 zlo zhi

Masses

       1     12.011  
       2     12.011  
       3     12.011  
       4     12.011  
       5     12.011  
       6     15.999  
       7     12.011  
       8     12.011  
       9     15.999  
      10      1.008  
      11      1.008  
      12      1.008  
      13      1.008  
      14      1.008  
      15      1.008  
      16      1.008  
      17      1.008  
      18      1.008  
      19      1.008  
      20      1.008  
      21      1.008  
      22      1.008  
      23      1.008  

Pair Coeffs 

       1      0.066  3.5000000 
       2      0.066  3.5000000 
       3      0.066  3.5000000 
       4      0.066  3.5000000 
       5      0.066  3.5000000 
       6      0.140  2.9000000 
       7      0.070  3.5500000 
       8      0.066  3.5000000 
       9      0.210  2.9600000 
      10      0.030  2.5000000 
      11      0.030  2.5000000 
      12      0.030  2.5000000 
      13      0.030  2.5000000 
      14      0.030  2.5000000 
      15      0.030  2.5000000 
      16      0.030  2.5000000 
      17      0.030  2.5000000 
      18      0.030  2.5000000 
      19      0.030  2.5000000 
      20      0.030  2.5000000 
      21      0.030  2.5000000 
      22      0.030  2.5000000 
      23      0.030  2.5000000 

Bond Coeffs 

       1   268.0000     1.5290 
       2   268.0000     1.5290 
       3   268.0000     1.5290 
       4   268.0000     1.5290 
       5   320.0000     1.4100 
       6   214.0000     1.3270 
       7   317.0000     1.5220 
       8   570.0000     1.2290 
       9   340.0000     1.0900 
      10   340.0000     1.0900 
      11   340.0000     1.0900 
      12   340.0000     1.0900 
      13   340.0000     1.0900 
      14   340.0000     1.0900 
      15   340.0000     1.0900 
      16   340.0000     1.0900 
      17   340.0000     1.0900 
      18   340.0000     1.0900 
      19   340.0000     1.0900 
      20   340.0000     1.0900 
      21   340.0000     1.0900 
      22   340.0000     1.0900 

Angle Coeffs 

       1     58.350    112.700
       2     58.350    112.700
       3     58.350    112.700
       4     50.000    109.500
       5     83.000    116.900
       6     81.000    111.400
       7     83.000    123.400
       8     37.500    110.700
       9     37.500    110.700
      10     37.500    110.700
      11     37.500    110.700
      12     37.500    110.700
      13     37.500    110.700
      14     37.500    110.700
      15     37.500    110.700
      16     37.500    110.700
      17     37.500    110.700
      18     37.500    110.700
      19     35.000    109.500
      20     35.000    109.500
      21     35.000    109.500
      22     37.500    110.700
      23     33.000    107.800
      24     33.000    107.800
      25     35.000    109.500
      26     80.000    120.400
      27     33.000    107.800
      28     58.350    112.700
      29     33.000    107.800
      30     33.000    107.800
      31     33.000    107.800
      32     33.000    107.800
      33     35.000    109.500
      34     37.500    110.700
      35     33.000    107.800
      36     33.000    107.800
      37     37.500    110.700
      38     33.000    107.800
      39     33.000    107.800
      40     37.500    110.700

Dihedral Coeffs  

       1      1.300     -0.200      0.200      0.000 
       2      1.711     -0.500      0.663      0.000 
       3     -1.220     -0.126      0.422      0.000 
       4      4.669      5.124      0.000      0.000 
       5      0.000      0.000      0.300      0.000 
       6      0.000      0.000      0.300      0.000 
       7      0.000      0.000      0.132      0.000 
       8      0.000      0.000      0.468      0.000 
       9      0.000      0.000      0.300      0.000 
      10      0.000      0.000      0.300      0.000 
      11      0.000      0.000      0.300      0.000 
      12      0.000      0.000      0.300      0.000 
      13      0.000      0.000      0.300      0.000 
      14      1.300     -0.200      0.200      0.000 
      15      0.000      0.000      0.300      0.000 
      16      0.000      0.000      0.300      0.000 
      17      0.000      0.000      0.000      0.000 
      18      0.000      0.000      0.300      0.000 
      19      0.000      0.000      0.132      0.000 
      20      0.000      0.000      0.300      0.000 
      21      0.000      0.000      0.300      0.000 
      22      0.000      0.000      0.300      0.000 
      23      0.000      0.000      0.300      0.000 
      24      0.000      0.000      0.300      0.000 
      25      0.000      5.124      0.000      0.000 
      26      0.000      0.000      0.300      0.000 
      27      0.000      0.000      0.198      0.000 
      28      0.000      0.000      0.198      0.000 
      29      0.000      0.000      0.300      0.000 
      30      0.000      0.000      0.300      0.000 
      31      0.000      0.000      0.300      0.000 
      32      0.000      0.000      0.300      0.000 
      33      0.000      0.000      0.300      0.000 
      34      0.000      0.000      0.300      0.000 
      35      0.000      0.000      0.300      0.000 
      36      0.000      0.000      0.300      0.000 
      37      0.000      0.000      0.300      0.000 
      38      0.000      0.000      0.300      0.000 
      39      1.711     -0.500      0.663      0.000 
      40      0.000      0.000      0.000      0.000 
      41      0.000      0.000      0.300      0.000 
      42      0.000      0.000      0.300      0.000 
      43      0.000      0.000      0.132      0.000 
      44      0.000      0.000      0.300      0.000 
      45      0.000      0.000      0.300      0.000 
      46      0.000      0.000      0.300      0.000 
      47      0.000      0.000      0.000      0.000 

Improper Coeffs 

       1      0.000      -1       2 
       2     10.500      -1       2 
       3      0.000      -1       2 
       4      0.000      -1       2 
       5      0.000      -1       2 
       6      0.000      -1       2 
       7      0.000      -1       2 
       8      0.000      -1       2 
       9      0.000      -1       2 
      10      0.000      -1       2 
      11      0.000      -1       2 
      12      0.000      -1       2 
      13      0.000      -1       2 

Atoms 

    1  1  1  -0.357908  1.000  1.00000  0.00000
    2  1  2  -0.205265  -0.522  1.00000  0.00000
    3  1  3  -0.077860  -1.143  1.00000  1.40922
    4  1  4  -0.361289  -0.750  2.24290  2.21418
    5  1  5  -0.038049  -2.675  0.88495  1.29521
    6  1  6  -0.362451  -3.302  0.88250  2.58913
    7  1  7  0.489618  -3.336  -0.31390  3.23184
    8  1  8  -0.425403  -4.012  -0.17879  4.56361
    9  1  9  -0.378743  -2.884  -1.36582  2.80127
    10  1  10  0.114932  1.375  0.90682  -1.02454
    11  1  11  0.117695  1.393  0.16084  0.58220
    12  1  12  0.118525  1.403  1.93025  0.41094
    13  1  13  0.110160  -0.863  0.10856  -0.54165
    14  1  14  0.102532  -0.877  1.86952  -0.56709
    15  1  15  0.120389  -0.768  0.12703  1.95767
    16  1  16  0.109071  -1.051  3.15909  1.69530
    17  1  17  0.118538  0.331  2.28240  2.37962
    18  1  18  0.121425  -1.222  2.24141  3.20200
    19  1  19  0.130389  -2.970  -0.00634  0.72768
    20  1  20  0.115399  -3.078  1.74918  0.75458
    21  1  21  0.139997  -4.333  0.85246  4.73586
    22  1  22  0.148667  -3.309  -0.45755  5.35326
    23  1  23  0.149632  -4.894  -0.82347  4.58681

Bonds 

     1      1      2      1
     2      2      3      2
     3      3      4      3
     4      4      5      3
     5      5      6      5
     6      6      7      6
     7      7      8      7
     8      8      9      7
     9      9     10      1
    10     10     11      1
    11     11     12      1
    12     12     13      2
    13     13     14      2
    14     14     15      3
    15     15     16      4
    16     16     17      4
    17     17     18      4
    18     18     19      5
    19     19     20      5
    20     20     21      8
    21     21     22      8
    22     22     23      8

Angles 

     1      1      1      2      3
     2      2      2      3      4
     3      3      2      3      5
     4      4      3      5      6
     5      5      5      6      7
     6      6      6      7      8
     7      7      6      7      9
     8      8      2      1     10
     9      9      2      1     11
    10     10      2      1     12
    11     11      1      2     13
    12     12      1      2     14
    13     13      2      3     15
    14     14      3      4     16
    15     15      3      4     17
    16     16      3      4     18
    17     17      3      5     19
    18     18      3      5     20
    19     19      7      8     21
    20     20      7      8     22
    21     21      7      8     23
    22     22      3      2     14
    23     23     13      2     14
    24     24     21      8     23
    25     25      6      5     19
    26     26      8      7      9
    27     27     17      4     18
    28     28      4      3      5
    29     29     16      4     17
    30     30     22      8     23
    31     31     19      5     20
    32     32     11      1     12
    33     33      6      5     20
    34     34      5      3     15
    35     35     10      1     12
    36     36     10      1     11
    37     37      3      2     13
    38     38     21      8     22
    39     39     16      4     18
    40     40      4      3     15

Dihedrals

     1      1      4      3      2      1 
     2      2      6      5      3      2 
     3      3      7      6      5      3 
     4      4      8      7      6      5 
     5      5     10      1      2      3 
     6      6     16      4      3      2 
     7      7     21      8      7      6 
     8      8     15      3      5      6 
     9      9     14      2      3      5 
    10     10     17      4      3      2 
    11     11     20      5      3      4 
    12     12     14      2      1     11 
    13     13     18      4      3      2 
    14     14      5      3      2      1 
    15     15     11      1      2      3 
    16     16     18      4      3     15 
    17     17     23      8      7      9 
    18     18     15      3      2     14 
    19     19     23      8      7      6 
    20     20     18      4      3      5 
    21     21     19      5      3      4 
    22     22     17      4      3     15 
    23     23     13      2      1     12 
    24     24     12      1      2      3 
    25     25      9      7      6      5 
    26     26     16      4      3      5 
    27     27     19      5      6      7 
    28     28     20      5      6      7 
    29     29     15      3      2      1 
    30     30     13      2      1     11 
    31     31     14      2      1     10 
    32     32     19      5      3      2 
    33     33     14      2      3      4 
    34     34     13      2      3      5 
    35     35     17      4      3      5 
    36     36     13      2      3      4 
    37     37     20      5      3      2 
    38     38     13      2      1     10 
    39     39      6      5      3      4 
    40     40     21      8      7      9 
    41     41     19      5      3     15 
    42     42     15      3      2     13 
    43     43     22      8      7      6 
    44     44     16      4      3     15 
    45     45     20      5      3     15 
    46     46     14      2      1     12 
    47     47     22      8      7      9 

Impropers

     1      1      3      2      4      5 
     2      2      7      9      6      8 
     3      3      1      2     11     10 
     4      4      1      2     12     10 
     5      5      2      1      3     13 
     6      6      2      1      3     14 
     7      7      3      2      4     15 
     8      8      4     17      3     16 
     9      9      4     18      3     16 
    10     10      5     19      3      6 
    11     11      5      3     20      6 
    12     12      8     21     22      7 
    13     13      8     21      7     23 

