LAMMPS data file Created by LigParGen - (Written by Leela S. Dodda)

      20 atoms
      20 bonds
      35 angles
      42 dihedrals
      11 impropers
 
      20 atom types
      20 bond types
      35 angle types
      42 dihedral types
      11 improper types
 
   -5.492990    44.507010 xlo xhi
   -0.423410    49.576590 ylo yhi
   -1.027210    48.972790 zlo zhi

Masses

       1     12.011  
       2     12.011  
       3     12.011  
       4     12.011  
       5     15.999  
       6     12.011  
       7     15.999  
       8     15.999  
       9     12.011  
      10     12.011  
      11      1.008  
      12      1.008  
      13      1.008  
      14      1.008  
      15      1.008  
      16      1.008  
      17      1.008  
      18      1.008  
      19      1.008  
      20      1.008  

Pair Coeffs 

       1      0.066  3.5000000 
       2      0.066  3.5000000 
       3      0.066  3.5000000 
       4      0.070  3.5500000 
       5      0.140  2.9000000 
       6      0.070  3.5500000 
       7      0.210  2.9600000 
       8      0.140  2.9000000 
       9      0.070  3.5500000 
      10      0.066  3.5000000 
      11      0.030  2.5000000 
      12      0.030  2.5000000 
      13      0.030  2.5000000 
      14      0.030  2.5000000 
      15      0.030  2.5000000 
      16      0.030  2.5000000 
      17      0.030  2.5000000 
      18      0.030  2.5000000 
      19      0.030  2.5000000 
      20      0.030  2.5000000 

Bond Coeffs 

       1   268.0000     1.5290 
       2   268.0000     1.5290 
       3   317.0000     1.5040 
       4   340.0000     1.3600 
       5   214.0000     1.3270 
       6   570.0000     1.2290 
       7   214.0000     1.3270 
       8   512.0000     1.3750 
       9   317.0000     1.5040 
      10   340.0000     1.0900 
      11   340.0000     1.0900 
      12   340.0000     1.0900 
      13   340.0000     1.0900 
      14   340.0000     1.0900 
      15   340.0000     1.0900 
      16   340.0000     1.0900 
      17   340.0000     1.0900 
      18   340.0000     1.0900 
      19   340.0000     1.0900 
      20   340.0000     1.3600 

Angle Coeffs 

       1     58.350    112.700
       2     63.000    114.000
       3     70.000    121.600
       4     83.000    116.900
       5     83.000    123.400
       6     69.900    118.180
       7     70.000    120.000
       8     70.000    120.000
       9     37.500    110.700
      10     37.500    110.700
      11     37.500    110.700
      12     37.500    110.700
      13     37.500    110.700
      14     37.500    110.700
      15     37.500    110.700
      16     35.000    109.500
      17     35.000    109.500
      18     35.000    109.500
      19     33.000    107.800
      20     37.500    110.700
      21     37.500    110.700
      22     33.000    107.800
      23     33.000    107.800
      24     70.000    120.000
      25     70.000    120.000
      26     33.000    107.800
      27     33.000    107.800
      28     33.000    107.800
      29     83.000    123.400
      30     33.000    107.800
      31     83.000    116.900
      32     35.000    109.500
      33     35.000    109.500
      34     33.000    107.800
      35     70.000    121.600

Dihedral Coeffs  

       1      1.300     -0.200      0.200      0.000 
       2      0.000      0.000      0.000      0.000 
       3      0.000      7.250      0.000      0.000 
       4      0.000      5.124      0.000      0.000 
       5      0.000      0.000      0.300      0.000 
       6      0.000      0.000      0.000      0.000 
       7      0.000      7.250      0.000      0.000 
       8      0.000      0.000      0.000      0.000 
       9      0.000      0.000      0.462      0.000 
      10      0.000      0.000      0.000      0.000 
      11      0.000      0.000      0.300      0.000 
      12      0.000      5.124      0.000      0.000 
      13      0.000      0.000      0.000      0.000 
      14      0.000      0.000      0.300      0.000 
      15      0.000     10.750      0.000      0.000 
      16      0.000      0.000      0.300      0.000 
      17      0.000      0.000      0.300      0.000 
      18      0.000      0.000      0.300      0.000 
      19      0.000      0.000      0.300      0.000 
      20      4.669      5.124      0.000      0.000 
      21      0.000      0.000      0.000      0.000 
      22      0.000      0.000      0.000      0.000 
      23      0.000      7.250      0.000      0.000 
      24      0.000      0.000      0.300      0.000 
      25      0.000      0.000      0.462      0.000 
      26      0.000      0.000      0.000      0.000 
      27      0.000      7.250      0.000      0.000 
      28      0.000      0.000      0.300      0.000 
      29      0.000      0.000      0.300      0.000 
      30      0.000      0.000      0.300      0.000 
      31      0.000     10.750      0.000      0.000 
      32      0.000      0.000      0.000      0.000 
      33      0.000     10.750      0.000      0.000 
      34      4.669      5.124      0.000      0.000 
      35      0.000      0.000      0.300      0.000 
      36      0.000      0.000      0.000      0.000 
      37      0.000      0.000      0.300      0.000 
      38      0.000      0.000      0.000      0.000 
      39      0.000      0.000      0.000      0.000 
      40      0.000      0.000      0.300      0.000 
      41      0.000      0.000      0.300      0.000 
      42      0.000     10.750      0.000      0.000 

Improper Coeffs 

       1     10.500      -1       2 
       2      2.500      -1       2 
       3      2.500      -1       2 
       4      0.000      -1       2 
       5      0.000      -1       2 
       6      0.000      -1       2 
       7      0.000      -1       2 
       8      0.000      -1       2 
       9      0.000      -1       2 
      10      0.000      -1       2 
      11      0.000      -1       2 

Atoms 

    1  1  1  -0.354405  1.000  1.00000  0.00000
    2  1  2  -0.205320  -0.521  1.00000  0.00000
    3  1  3  -0.274994  -1.079  1.00000  1.42407
    4  1  4  0.248246  -2.571  1.00175  1.43370
    5  1  5  -0.368759  -3.230  -0.07859  0.87815
    6  1  6  0.621939  -4.556  0.27870  1.06898
    7  1  7  -0.384560  -5.493  -0.42341  0.70880
    8  1  8  -0.363492  -4.727  1.49968  1.70465
    9  1  9  0.227255  -3.417  1.89396  1.90206
    10  1  10  -0.433116  -3.160  3.18987  2.57551
    11  1  11  0.121303  1.378  0.99870  -1.02721
    12  1  12  0.118273  1.392  0.11279  0.50728
    13  1  13  0.113718  1.391  1.88939  0.50420
    14  1  14  0.128837  -0.875  0.11626  -0.54409
    15  1  15  0.113528  -0.879  1.88225  -0.54461
    16  1  16  0.122059  -0.696  1.87437  1.96370
    17  1  17  0.131042  -0.722  0.11514  1.96423
    18  1  18  0.150918  -4.099  3.68790  2.83764
    19  1  19  0.143442  -2.597  3.86121  1.91969
    20  1  20  0.144083  -2.593  3.03830  3.49931

Bonds 

     1      1      2      1
     2      2      3      2
     3      3      4      3
     4      4      5      4
     5      5      6      5
     6      6      7      6
     7      7      8      6
     8      8      9      4
     9      9     10      9
    10     10     11      1
    11     11     12      1
    12     12     13      1
    13     13     14      2
    14     14     15      2
    15     15     16      3
    16     16     17      3
    17     17     18     10
    18     18     19     10
    19     19     20     10
    20     20      9      8

Angles 

     1      1      1      2      3
     2      2      2      3      4
     3      3      3      4      5
     4      4      4      5      6
     5      5      5      6      7
     6      6      5      6      8
     7      7      3      4      9
     8      8      4      9     10
     9      9      2      1     11
    10     10      2      1     12
    11     11      2      1     13
    12     12      1      2     14
    13     13      1      2     15
    14     14      2      3     16
    15     15      2      3     17
    16     16      9     10     18
    17     17      9     10     19
    18     18      9     10     20
    19     19     18     10     20
    20     20      3      2     14
    21     21      3      2     15
    22     22     11      1     13
    23     23     18     10     19
    24     24      5      4      9
    25     25      4      9      8
    26     26     11      1     12
    27     27     12      1     13
    28     28     14      2     15
    29     29      7      6      8
    30     30     19     10     20
    31     31      6      8      9
    32     32      4      3     16
    33     33      4      3     17
    34     34     16      3     17
    35     35      8      9     10

Dihedrals

     1      1      4      3      2      1 
     2      2      5      4      3      2 
     3      3      6      5      4      3 
     4      4      7      6      5      4 
     5      5     11      1      2      3 
     6      6     18     10      9      4 
     7      7      9      4      5      6 
     8      8     16      3      4      9 
     9      9     15      2      3      4 
    10     10     17      3      4      9 
    11     11     14      2      1     13 
    12     12      9      8      6      7 
    13     13     19     10      9      4 
    14     14     17      3      2     14 
    15     15     10      9      4      3 
    16     16     17      3      2     15 
    17     17     14      2      1     11 
    18     18     12      1      2      3 
    19     19     15      2      1     13 
    20     20      8      6      5      4 
    21     21     18     10      9      8 
    22     22     20     10      9      8 
    23     23      6      8      9      4 
    24     24     16      3      2      1 
    25     25     14      2      3      4 
    26     26     17      3      4      5 
    27     27     10      9      8      6 
    28     28     17      3      2      1 
    29     29     16      3      2     14 
    30     30     13      1      2      3 
    31     31     10      9      4      5 
    32     32     20     10      9      4 
    33     33      8      9      4      5 
    34     34      9      8      6      5 
    35     35     15      2      1     12 
    36     36      9      4      3      2 
    37     37     16      3      2     15 
    38     38     19     10      9      8 
    39     39     16      3      4      5 
    40     40     15      2      1     11 
    41     41     14      2      1     12 
    42     42      8      9      4      3 

Impropers

     1      1      6      5      7      8 
     2      2      4      9      3      5 
     3      3      9     10      4      8 
     4      4      1      2     11     12 
     5      5      1      2     11     13 
     6      6      2      1      3     14 
     7      7      2      1      3     15 
     8      8      3      2      4     16 
     9      9      3     17      2      4 
    10     10     10      9     19     18 
    11     11     10      9     20     18 

