LAMMPS data file Created by LigParGen - (Written by Leela S. Dodda)

      12 atoms
      12 bonds
      22 angles
      29 dihedrals
       7 impropers
 
      12 atom types
      12 bond types
      22 angle types
      29 dihedral types
       7 improper types
 
   -1.887790    48.112210 xlo xhi
   -0.837290    49.162710 ylo yhi
   -0.894740    49.105260 zlo zhi

Masses

       1     12.011  
       2     12.011  
       3     12.011  
       4     15.999  
       5     15.999  
       6     12.011  
       7      1.008  
       8      1.008  
       9      1.008  
      10      1.008  
      11      1.008  
      12      1.008  

Pair Coeffs 

       1      0.066  3.5000000 
       2      0.066  3.5000000 
       3      0.070  3.5500000 
       4      0.210  2.9600000 
       5      0.140  2.9000000 
       6      0.066  3.5000000 
       7      0.030  2.5000000 
       8      0.030  2.5000000 
       9      0.030  2.5000000 
      10      0.030  2.5000000 
      11      0.030  2.5000000 
      12      0.030  2.5000000 

Bond Coeffs 

       1   268.0000     1.5290 
       2   317.0000     1.5220 
       3   570.0000     1.2290 
       4   214.0000     1.3270 
       5   268.0000     1.5290 
       6   340.0000     1.0900 
       7   340.0000     1.0900 
       8   340.0000     1.0900 
       9   340.0000     1.0900 
      10   340.0000     1.0900 
      11   340.0000     1.0900 
      12   320.0000     1.4100 

Angle Coeffs 

       1     63.000    111.100
       2     80.000    120.400
       3     81.000    111.400
       4     58.350    112.700
       5     37.500    110.700
       6     37.500    110.700
       7     37.500    110.700
       8     37.500    110.700
       9     37.500    110.700
      10     37.500    110.700
      11     33.000    107.800
      12     33.000    107.800
      13     37.500    110.700
      14     83.000    123.400
      15     35.000    109.500
      16     35.000    109.500
      17     35.000    109.500
      18     33.000    107.800
      19     37.500    110.700
      20     50.000    109.500
      21     83.000    116.900
      22     35.000    109.500

Dihedral Coeffs  

       1      0.000      0.000      0.000      0.000 
       2     -2.060     -0.313      0.315      0.000 
       3      0.000      0.000      0.198      0.000 
       4      0.000      0.000      0.198      0.000 
       5      1.711     -0.500      0.663      0.000 
       6      0.000      0.000     -0.100      0.000 
       7      0.000      0.000      0.300      0.000 
       8      4.669      5.124      0.000      0.000 
       9      0.000      5.124      0.000      0.000 
      10      0.000      0.000      0.300      0.000 
      11      0.000      0.000      0.300      0.000 
      12      0.000      0.000      0.000      0.000 
      13      0.000      0.000      0.300      0.000 
      14      0.000      0.000      0.300      0.000 
      15      0.000      0.000      0.300      0.000 
      16      0.000      0.000      0.300      0.000 
      17      0.000      0.000      0.300      0.000 
      18      0.000      0.000     -0.100      0.000 
      19      0.000      0.000      0.300      0.000 
      20      0.000      0.000      0.300      0.000 
      21      0.000      0.000      0.468      0.000 
      22      0.000      0.000      0.300      0.000 
      23      0.000      0.000      0.300      0.000 
      24      0.000      0.000     -0.553      0.000 
      25     -1.220     -0.126      0.422      0.000 
      26      0.000      0.000      0.132      0.000 
      27      0.000      0.000      0.468      0.000 
      28      0.000      0.000      0.132      0.000 
      29      0.000      0.000      0.000      0.000 

Improper Coeffs 

       1     10.500      -1       2 
       2      0.000      -1       2 
       3      0.000      -1       2 
       4      0.000      -1       2 
       5      0.000      -1       2 
       6      0.000      -1       2 
       7      0.000      -1       2 

Atoms 

    1  1  1  -0.251394  1.000  1.00000  0.00000
    2  1  2  -0.300261  -0.508  1.00000  0.00000
    3  1  3  0.498189  -0.814  1.00000  1.46715
    4  1  4  -0.374641  -1.888  1.29251  1.96606
    5  1  5  -0.350286  0.272  0.56626  2.17286
    6  1  6  -0.027539  1.323  0.24697  1.26406
    7  1  7  0.130842  1.366  2.03126  0.07947
    8  1  8  0.124715  1.439  0.55096  -0.89474
    9  1  9  0.147489  -0.915  0.08954  -0.44897
    10  1  10  0.149367  -0.910  1.89015  -0.48872
    11  1  11  0.122938  1.332  -0.83729  1.10959
    12  1  12  0.130582  2.282  0.55561  1.68947

Bonds 

     1      1      2      1
     2      2      3      2
     3      3      4      3
     4      4      5      3
     5      5      6      1
     6      6      7      1
     7      7      8      1
     8      8      9      2
     9      9     10      2
    10     10     11      6
    11     11     12      6
    12     12      6      5

Angles 

     1      1      1      2      3
     2      2      2      3      4
     3      3      2      3      5
     4      4      2      1      6
     5      5      2      1      7
     6      6      2      1      8
     7      7      1      2      9
     8      8      1      2     10
     9      9      1      6     11
    10     10      1      6     12
    11     11      9      2     10
    12     12     11      6     12
    13     13      6      1      8
    14     14      4      3      5
    15     15      5      6     12
    16     16      3      2      9
    17     17      5      6     11
    18     18      7      1      8
    19     19      6      1      7
    20     20      1      6      5
    21     21      3      5      6
    22     22      3      2     10

Dihedrals

     1      1      4      3      2      1 
     2      2      6      1      2      3 
     3      3     12      6      5      3 
     4      4     11      6      5      3 
     5      5      5      6      1      2 
     6      6      7      1      2      3 
     7      7     11      6      1      2 
     8      8      6      5      3      2 
     9      9      6      5      3      4 
    10     10     10      2      1      8 
    11     11     12      6      1      8 
    12     12      9      2      3      4 
    13     13     11      6      1      8 
    14     14     12      6      1      7 
    15     15     11      6      1      7 
    16     16     10      2      1      7 
    17     17      9      2      1      8 
    18     18      8      1      2      3 
    19     19     10      2      1      6 
    20     20      9      2      1      7 
    21     21      7      1      6      5 
    22     22      9      2      1      6 
    23     23     12      6      1      2 
    24     24      5      3      2      1 
    25     25      3      5      6      1 
    26     26     10      2      3      5 
    27     27      8      1      6      5 
    28     28      9      2      3      5 
    29     29     10      2      3      4 

Impropers

     1      1      3      2      4      5 
     2      2      1      2      6      7 
     3      3      1      2      6      8 
     4      4      2      9      3      1 
     5      5      2      1     10      3 
     6      6      6      1     11      5 
     7      7      6      1     12      5 

