LAMMPS data file Created by LigParGen - (Written by Leela S. Dodda)

      20 atoms
      19 bonds
      34 angles
      38 dihedrals
      11 impropers
 
      20 atom types
      19 bond types
      34 angle types
      38 dihedral types
      11 improper types
 
   -4.899730    45.100270 xlo xhi
    0.081220    50.081220 ylo yhi
   -3.354830    46.645170 zlo zhi

Masses

       1     12.011  
       2     12.011  
       3     15.999  
       4     15.999  
       5     12.011  
       6     12.011  
       7     12.011  
       8     12.011  
       9      1.008  
      10      1.008  
      11      1.008  
      12      1.008  
      13      1.008  
      14      1.008  
      15      1.008  
      16      1.008  
      17      1.008  
      18      1.008  
      19      1.008  
      20      1.008  

Pair Coeffs 

       1      0.066  3.5000000 
       2      0.070  3.5500000 
       3      0.210  2.9600000 
       4      0.140  2.9000000 
       5      0.066  3.5000000 
       6      0.066  3.5000000 
       7      0.066  3.5000000 
       8      0.066  3.5000000 
       9      0.030  2.5000000 
      10      0.030  2.5000000 
      11      0.030  2.5000000 
      12      0.030  2.5000000 
      13      0.030  2.5000000 
      14      0.030  2.5000000 
      15      0.030  2.5000000 
      16      0.030  2.5000000 
      17      0.030  2.5000000 
      18      0.030  2.5000000 
      19      0.030  2.5000000 
      20      0.030  2.5000000 

Bond Coeffs 

       1   317.0000     1.5220 
       2   570.0000     1.2290 
       3   214.0000     1.3270 
       4   320.0000     1.4100 
       5   268.0000     1.5290 
       6   268.0000     1.5290 
       7   268.0000     1.5290 
       8   340.0000     1.0900 
       9   340.0000     1.0900 
      10   340.0000     1.0900 
      11   340.0000     1.0900 
      12   340.0000     1.0900 
      13   340.0000     1.0900 
      14   340.0000     1.0900 
      15   340.0000     1.0900 
      16   340.0000     1.0900 
      17   340.0000     1.0900 
      18   340.0000     1.0900 
      19   340.0000     1.0900 

Angle Coeffs 

       1     80.000    120.400
       2     81.000    111.400
       3     83.000    116.900
       4     50.000    109.500
       5     58.350    112.700
       6     58.350    112.700
       7     35.000    109.500
       8     35.000    109.500
       9     35.000    109.500
      10     35.000    109.500
      11     35.000    109.500
      12     37.500    110.700
      13     37.500    110.700
      14     37.500    110.700
      15     37.500    110.700
      16     37.500    110.700
      17     37.500    110.700
      18     37.500    110.700
      19     37.500    110.700
      20     33.000    107.800
      21     37.500    110.700
      22     33.000    107.800
      23     33.000    107.800
      24     33.000    107.800
      25     83.000    123.400
      26     33.000    107.800
      27     58.350    112.700
      28     37.500    110.700
      29     33.000    107.800
      30     33.000    107.800
      31     33.000    107.800
      32     33.000    107.800
      33     33.000    107.800
      34     37.500    110.700

Dihedral Coeffs  

       1      4.669      5.124      0.000      0.000 
       2     -1.220     -0.126      0.422      0.000 
       3      1.711     -0.500      0.663      0.000 
       4      0.000      0.000      0.000      0.000 
       5      0.000      0.000      0.300      0.000 
       6      0.000      0.000      0.300      0.000 
       7      0.000      0.000      0.300      0.000 
       8      0.000      0.000      0.300      0.000 
       9      0.000      0.000      0.300      0.000 
      10      0.000      0.000      0.132      0.000 
      11      0.000      0.000      0.000      0.000 
      12      0.000      5.124      0.000      0.000 
      13      0.000      0.000      0.300      0.000 
      14      0.000      0.000      0.300      0.000 
      15      0.000      0.000      0.300      0.000 
      16      0.000      0.000      0.300      0.000 
      17      0.000      0.000      0.132      0.000 
      18      0.000      0.000      0.300      0.000 
      19      0.000      0.000      0.300      0.000 
      20      1.711     -0.500      0.663      0.000 
      21      0.000      0.000      0.198      0.000 
      22      0.000      0.000      0.198      0.000 
      23      0.000      0.000      0.300      0.000 
      24      0.000      0.000      0.300      0.000 
      25      0.000      0.000      0.300      0.000 
      26      0.000      0.000      0.300      0.000 
      27      0.000      0.000      0.300      0.000 
      28      0.000      0.000      0.300      0.000 
      29      0.000      0.000      0.300      0.000 
      30      0.000      0.000      0.300      0.000 
      31      0.000      0.000      0.300      0.000 
      32      0.000      0.000      0.468      0.000 
      33      0.000      0.000      0.300      0.000 
      34      0.000      0.000      0.000      0.000 
      35      0.000      0.000      0.132      0.000 
      36      0.000      0.000      0.300      0.000 
      37      0.000      0.000      0.300      0.000 
      38      0.000      0.000      0.300      0.000 

Improper Coeffs 

       1     10.500      -1       2 
       2      0.000      -1       2 
       3      0.000      -1       2 
       4      0.000      -1       2 
       5      0.000      -1       2 
       6      0.000      -1       2 
       7      0.000      -1       2 
       8      0.000      -1       2 
       9      0.000      -1       2 
      10      0.000      -1       2 
      11      0.000      -1       2 

Atoms 

    1  1  1  -0.416951  1.000  1.00000  0.00000
    2  1  2  0.483472  -0.498  1.00000  0.00000
    3  1  3  -0.377518  -1.186  1.00000  1.00997
    4  1  4  -0.361414  -0.961  1.00162  -1.27999
    5  1  5  -0.032311  -2.391  1.00344  -1.42159
    6  1  6  -0.079035  -2.957  2.42353  -1.28145
    7  1  7  -0.352728  -2.380  3.35788  -2.34652
    8  1  8  -0.360905  -4.482  2.39810  -1.35965
    9  1  9  0.144902  1.360  1.04616  1.03177
    10  1  10  0.144112  1.370  1.87869  -0.53488
    11  1  11  0.145854  1.370  0.08122  -0.46140
    12  1  12  0.129555  -2.845  0.31375  -0.69941
    13  1  13  0.115122  -2.610  0.60292  -2.41832
    14  1  14  0.123846  -2.668  2.82813  -0.30385
    15  1  15  0.109314  -2.629  3.00970  -3.35483
    16  1  16  0.120070  -1.290  3.42037  -2.26766
    17  1  17  0.114183  -2.781  4.37046  -2.22949
    18  1  18  0.111470  -4.824  2.02166  -2.32947
    19  1  19  0.119237  -4.893  3.40350  -1.22090
    20  1  20  0.119723  -4.900  1.75375  -0.57890

Bonds 

     1      1      2      1
     2      2      3      2
     3      3      4      2
     4      4      5      4
     5      5      6      5
     6      6      7      6
     7      7      8      6
     8      8      9      1
     9      9     10      1
    10     10     11      1
    11     11     12      5
    12     12     13      5
    13     13     14      6
    14     14     15      7
    15     15     16      7
    16     16     17      7
    17     17     18      8
    18     18     19      8
    19     19     20      8

Angles 

     1      1      1      2      3
     2      2      1      2      4
     3      3      2      4      5
     4      4      4      5      6
     5      5      5      6      7
     6      6      5      6      8
     7      7      2      1      9
     8      8      2      1     10
     9      9      2      1     11
    10     10      4      5     12
    11     11      4      5     13
    12     12      5      6     14
    13     13      6      7     15
    14     14      6      7     16
    15     15      6      7     17
    16     16      6      8     18
    17     17      6      8     19
    18     18      6      8     20
    19     19      7      6     14
    20     20     19      8     20
    21     21      6      5     13
    22     22     15      7     16
    23     23     15      7     17
    24     24     12      5     13
    25     25      3      2      4
    26     26     16      7     17
    27     27      7      6      8
    28     28      6      5     12
    29     29     18      8     19
    30     30     10      1     11
    31     31      9      1     10
    32     32      9      1     11
    33     33     18      8     20
    34     34      8      6     14

Dihedrals

     1      1      5      4      2      1 
     2      2      6      5      4      2 
     3      3      7      6      5      4 
     4      4      9      1      2      3 
     5      5     15      7      6      5 
     6      6     18      8      6      5 
     7      7     16      7      6      5 
     8      8     19      8      6      5 
     9      9     17      7      6     14 
    10     10     10      1      2      4 
    11     11     11      1      2      3 
    12     12      5      4      2      3 
    13     13     20      8      6      7 
    14     14     19      8      6      7 
    15     15     17      7      6      5 
    16     16     16      7      6      8 
    17     17     11      1      2      4 
    18     18     12      5      6      8 
    19     19     13      5      6      7 
    20     20      8      6      5      4 
    21     21     13      5      4      2 
    22     22     12      5      4      2 
    23     23     14      6      5     13 
    24     24     12      5      6      7 
    25     25     20      8      6      5 
    26     26     18      8      6      7 
    27     27     18      8      6     14 
    28     28     20      8      6     14 
    29     29     13      5      6      8 
    30     30     15      7      6      8 
    31     31     16      7      6     14 
    32     32     14      6      5      4 
    33     33     19      8      6     14 
    34     34     10      1      2      3 
    35     35      9      1      2      4 
    36     36     15      7      6     14 
    37     37     14      6      5     12 
    38     38     17      7      6      8 

Impropers

     1      1      2      1      3      4 
     2      2      6      5      7      8 
     3      3      1     10      9      2 
     4      4      1      2     11      9 
     5      5      5      4     12      6 
     6      6      5      4     13      6 
     7      7      6      5     14      7 
     8      8      7     15      6     16 
     9      9      7     17     15      6 
    10     10      8     18     19      6 
    11     11      8     18     20      6 

