LAMMPS data file Created by LigParGen - (Written by Leela S. Dodda)

      23 atoms
      22 bonds
      40 angles
      47 dihedrals
      13 impropers
 
      23 atom types
      22 bond types
      40 angle types
      47 dihedral types
      13 improper types
 
   -3.130040    46.869960 xlo xhi
    0.106630    50.106630 ylo yhi
   -4.641230    45.358770 zlo zhi

Masses

       1     12.011  
       2     12.011  
       3     12.011  
       4     15.999  
       5     12.011  
       6     15.999  
       7     12.011  
       8     12.011  
       9     12.011  
      10      1.008  
      11      1.008  
      12      1.008  
      13      1.008  
      14      1.008  
      15      1.008  
      16      1.008  
      17      1.008  
      18      1.008  
      19      1.008  
      20      1.008  
      21      1.008  
      22      1.008  
      23      1.008  

Pair Coeffs 

       1      0.066  3.5000000 
       2      0.066  3.5000000 
       3      0.066  3.5000000 
       4      0.140  2.9000000 
       5      0.070  3.5500000 
       6      0.210  2.9600000 
       7      0.066  3.5000000 
       8      0.066  3.5000000 
       9      0.066  3.5000000 
      10      0.030  2.5000000 
      11      0.030  2.5000000 
      12      0.030  2.5000000 
      13      0.030  2.5000000 
      14      0.030  2.5000000 
      15      0.030  2.5000000 
      16      0.030  2.5000000 
      17      0.030  2.5000000 
      18      0.030  2.5000000 
      19      0.030  2.5000000 
      20      0.030  2.5000000 
      21      0.030  2.5000000 
      22      0.030  2.5000000 
      23      0.030  2.5000000 

Bond Coeffs 

       1   268.0000     1.5290 
       2   268.0000     1.5290 
       3   320.0000     1.4100 
       4   214.0000     1.3270 
       5   570.0000     1.2290 
       6   317.0000     1.5220 
       7   268.0000     1.5290 
       8   268.0000     1.5290 
       9   340.0000     1.0900 
      10   340.0000     1.0900 
      11   340.0000     1.0900 
      12   340.0000     1.0900 
      13   340.0000     1.0900 
      14   340.0000     1.0900 
      15   340.0000     1.0900 
      16   340.0000     1.0900 
      17   340.0000     1.0900 
      18   340.0000     1.0900 
      19   340.0000     1.0900 
      20   340.0000     1.0900 
      21   340.0000     1.0900 
      22   340.0000     1.0900 

Angle Coeffs 

       1     58.350    112.700
       2     50.000    109.500
       3     83.000    116.900
       4     83.000    123.400
       5     81.000    111.400
       6     63.000    111.100
       7     63.000    111.100
       8     37.500    110.700
       9     37.500    110.700
      10     37.500    110.700
      11     37.500    110.700
      12     37.500    110.700
      13     37.500    110.700
      14     37.500    110.700
      15     35.000    109.500
      16     37.500    110.700
      17     37.500    110.700
      18     37.500    110.700
      19     37.500    110.700
      20     37.500    110.700
      21     37.500    110.700
      22     33.000    107.800
      23     37.500    110.700
      24     33.000    107.800
      25     35.000    109.500
      26     33.000    107.800
      27     58.350    112.700
      28     33.000    107.800
      29     33.000    107.800
      30     33.000    107.800
      31     33.000    107.800
      32     33.000    107.800
      33     33.000    107.800
      34     33.000    107.800
      35     80.000    120.400
      36     50.000    109.500
      37     33.000    107.800
      38     33.000    107.800
      39     37.500    110.700
      40     37.500    110.700

Dihedral Coeffs  

       1     -1.220     -0.126      0.422      0.000 
       2      0.000      5.124      0.000      0.000 
       3      0.000      0.000     -0.553      0.000 
       4      0.000      0.000      0.300      0.000 
       5      0.000      0.000      0.300      0.000 
       6      0.000      0.000     -0.100      0.000 
       7      0.000      0.000     -0.100      0.000 
       8      0.000      0.000      0.468      0.000 
       9      0.000      0.000      0.468      0.000 
      10      4.669      5.124      0.000      0.000 
      11      0.000      0.000      0.300      0.000 
      12      0.000      0.000      0.300      0.000 
      13      0.000      0.000      0.468      0.000 
      14      0.000      0.000      0.300      0.000 
      15      0.000      0.000      0.300      0.000 
      16      0.000      0.000      0.300      0.000 
      17      0.000      0.000      0.300      0.000 
      18     -1.220     -0.126      0.422      0.000 
      19      0.000      0.000      0.132      0.000 
      20      0.000      0.000      0.198      0.000 
      21      0.000      0.000      0.300      0.000 
      22      0.000      0.000      0.300      0.000 
      23      0.000      0.000      0.300      0.000 
      24      0.000      0.000      0.000      0.000 
      25      0.000      0.000      0.468      0.000 
      26      0.000      0.000      0.000      0.000 
      27      0.000      0.000      0.300      0.000 
      28      0.000      0.000      0.300      0.000 
      29      0.000      0.000      0.300      0.000 
      30      0.000      0.000     -0.100      0.000 
      31      0.000      0.000      0.300      0.000 
      32      0.000      0.000      0.300      0.000 
      33      0.000      0.000      0.468      0.000 
      34      0.000      0.000      0.300      0.000 
      35      0.000      0.000      0.300      0.000 
      36      0.000      0.000     -0.100      0.000 
      37      0.000      0.000      0.300      0.000 
      38      0.000      0.000     -0.100      0.000 
      39      0.000      0.000      0.300      0.000 
      40      0.000      0.000      0.468      0.000 
      41      0.000      0.000      0.300      0.000 
      42      0.000      0.000     -0.100      0.000 
      43      0.000      0.000      0.300      0.000 
      44      0.000      0.000      0.300      0.000 
      45      0.000      0.000     -0.553      0.000 
      46      0.000      0.000      0.000      0.000 
      47      0.000      0.000      0.300      0.000 

Improper Coeffs 

       1      0.000      -1       2 
       2     10.500      -1       2 
       3      0.000      -1       2 
       4      0.000      -1       2 
       5      0.000      -1       2 
       6      0.000      -1       2 
       7      0.000      -1       2 
       8      0.000      -1       2 
       9      0.000      -1       2 
      10      0.000      -1       2 
      11      0.000      -1       2 
      12      0.000      -1       2 
      13      0.000      -1       2 

Atoms 

    1  1  1  -0.368183  1.000  1.00000  0.00000
    2  1  2  0.106992  -0.524  1.00000  0.00000
    3  1  3  -0.363189  -1.060  1.00000  1.42704
    4  1  4  -0.378991  -1.006  2.19309  -0.64799
    5  1  5  0.508835  -1.047  2.14508  -2.01041
    6  1  6  -0.390054  -0.711  1.18341  -2.68913
    7  1  7  -0.125682  -1.567  3.45485  -2.56943
    8  1  8  -0.361606  -0.406  4.42321  -2.75825
    9  1  9  -0.351798  -2.298  3.20887  -3.88675
    10  1  10  0.117485  1.395  0.11584  0.50825
    11  1  11  0.118066  1.391  1.89599  0.49718
    12  1  12  0.136732  1.392  1.01291  -1.02227
    13  1  13  0.127230  -0.907  0.10663  -0.50931
    14  1  14  0.122325  -0.743  1.89963  1.96637
    15  1  15  0.120139  -0.715  0.12000  1.97850
    16  1  16  0.122227  -2.155  1.00363  1.42354
    17  1  17  0.121625  -2.288  3.87500  -1.85789
    18  1  18  0.128065  0.360  4.00191  -3.41816
    19  1  19  0.124666  0.075  4.64633  -1.79932
    20  1  20  0.122391  -0.750  5.36670  -3.19402
    21  1  21  0.132101  -1.632  2.77379  -4.64123
    22  1  22  0.111563  -2.701  4.14279  -4.29074
    23  1  23  0.119058  -3.130  2.51078  -3.74198

Bonds 

     1      1      2      1
     2      2      3      2
     3      3      4      2
     4      4      5      4
     5      5      6      5
     6      6      7      5
     7      7      8      7
     8      8      9      7
     9      9     10      1
    10     10     11      1
    11     11     12      1
    12     12     13      2
    13     13     14      3
    14     14     15      3
    15     15     16      3
    16     16     17      7
    17     17     18      8
    18     18     19      8
    19     19     20      8
    20     20     21      9
    21     21     22      9
    22     22     23      9

Angles 

     1      1      1      2      3
     2      2      1      2      4
     3      3      2      4      5
     4      4      4      5      6
     5      5      4      5      7
     6      6      5      7      8
     7      7      5      7      9
     8      8      2      1     10
     9      9      2      1     11
    10     10      2      1     12
    11     11      1      2     13
    12     12      2      3     14
    13     13      2      3     15
    14     14      2      3     16
    15     15      5      7     17
    16     16      7      8     18
    17     17      7      8     19
    18     18      7      8     20
    19     19      7      9     21
    20     20      7      9     22
    21     21      7      9     23
    22     22     21      9     23
    23     23      9      7     17
    24     24     18      8     19
    25     25      4      2     13
    26     26     18      8     20
    27     27      8      7      9
    28     28     22      9     23
    29     29     19      8     20
    30     30     15      3     16
    31     31     14      3     15
    32     32     21      9     22
    33     33     14      3     16
    34     34     11      1     12
    35     35      6      5      7
    36     36      3      2      4
    37     37     10      1     12
    38     38     10      1     11
    39     39      3      2     13
    40     40      8      7     17

Dihedrals

     1      1      5      4      2      1 
     2      2      6      5      4      2 
     3      3      8      7      5      4 
     4      4     10      1      2      3 
     5      5     14      3      2      1 
     6      6     18      8      7      5 
     7      7     21      9      7      5 
     8      8     16      3      2      4 
     9      9     15      3      2      4 
    10     10      7      5      4      2 
    11     11     23      9      7      8 
    12     12     20      8      7      9 
    13     13     10      1      2      4 
    14     14     11      1      2      3 
    15     15     16      3      2     13 
    16     16     15      3      2     13 
    17     17     23      9      7     17 
    18     18      5      4      2      3 
    19     19     17      7      5      4 
    20     20     13      2      4      5 
    21     21     14      3      2     13 
    22     22     13      2      1     12 
    23     23     12      1      2      3 
    24     24     17      7      5      6 
    25     25     11      1      2      4 
    26     26      8      7      5      6 
    27     27     18      8      7      9 
    28     28     15      3      2      1 
    29     29     13      2      1     11 
    30     30     23      9      7      5 
    31     31     16      3      2      1 
    32     32     20      8      7     17 
    33     33     14      3      2      4 
    34     34     21      9      7     17 
    35     35     19      8      7     17 
    36     36     22      9      7      5 
    37     37     13      2      1     10 
    38     38     19      8      7      5 
    39     39     22      9      7      8 
    40     40     12      1      2      4 
    41     41     19      8      7      9 
    42     42     20      8      7      5 
    43     43     18      8      7     17 
    44     44     22      9      7     17 
    45     45      9      7      5      4 
    46     46      9      7      5      6 
    47     47     21      9      7      8 

Impropers

     1      1      2      1      3      4 
     2      2      5      4      6      7 
     3      3      7      9      5      8 
     4      4      1      2     11     10 
     5      5      1      2     12     10 
     6      6      2      1      3     13 
     7      7      3      2     14     15 
     8      8      3      2     14     16 
     9      9      7     17      5      8 
    10     10      8     18     19      7 
    11     11      8     18     20      7 
    12     12      9     21     22      7 
    13     13      9     21      7     23 

