LAMMPS data file Created by LigParGen - (Written by Leela S. Dodda)

      20 atoms
      20 bonds
      35 angles
      42 dihedrals
      11 impropers
 
      20 atom types
      20 bond types
      35 angle types
      42 dihedral types
      11 improper types
 
   -3.389560    46.610440 xlo xhi
   -1.160930    48.839070 ylo yhi
   -4.212410    45.787590 zlo zhi

Masses

       1     12.011  
       2     12.011  
       3     15.999  
       4     12.011  
       5     15.999  
       6     15.999  
       7     12.011  
       8     12.011  
       9     12.011  
      10     12.011  
      11      1.008  
      12      1.008  
      13      1.008  
      14      1.008  
      15      1.008  
      16      1.008  
      17      1.008  
      18      1.008  
      19      1.008  
      20      1.008  

Pair Coeffs 

       1      0.066  3.5000000 
       2      0.070  3.5500000 
       3      0.140  2.9000000 
       4      0.070  3.5500000 
       5      0.210  2.9600000 
       6      0.140  2.9000000 
       7      0.070  3.5500000 
       8      0.066  3.5000000 
       9      0.066  3.5000000 
      10      0.066  3.5000000 
      11      0.030  2.5000000 
      12      0.030  2.5000000 
      13      0.030  2.5000000 
      14      0.030  2.5000000 
      15      0.030  2.5000000 
      16      0.030  2.5000000 
      17      0.030  2.5000000 
      18      0.030  2.5000000 
      19      0.030  2.5000000 
      20      0.030  2.5000000 

Bond Coeffs 

       1   317.0000     1.5040 
       2   340.0000     1.3600 
       3   214.0000     1.3270 
       4   570.0000     1.2290 
       5   214.0000     1.3270 
       6   512.0000     1.3750 
       7   317.0000     1.5040 
       8   268.0000     1.5290 
       9   268.0000     1.5290 
      10   340.0000     1.0900 
      11   340.0000     1.0900 
      12   340.0000     1.0900 
      13   340.0000     1.0900 
      14   340.0000     1.0900 
      15   340.0000     1.0900 
      16   340.0000     1.0900 
      17   340.0000     1.0900 
      18   340.0000     1.0900 
      19   340.0000     1.0900 
      20   340.0000     1.3600 

Angle Coeffs 

       1     70.000    121.600
       2     83.000    116.900
       3     83.000    123.400
       4     69.900    118.180
       5     70.000    120.000
       6     70.000    120.000
       7     63.000    114.000
       8     63.000    114.000
       9     35.000    109.500
      10     35.000    109.500
      11     35.000    109.500
      12     35.000    109.500
      13     37.500    110.700
      14     37.500    110.700
      15     37.500    110.700
      16     37.500    110.700
      17     37.500    110.700
      18     37.500    110.700
      19     33.000    107.800
      20     83.000    123.400
      21     33.000    107.800
      22     83.000    116.900
      23     33.000    107.800
      24     70.000    120.000
      25     58.350    112.700
      26     70.000    121.600
      27     33.000    107.800
      28     33.000    107.800
      29     33.000    107.800
      30     37.500    110.700
      31     33.000    107.800
      32     33.000    107.800
      33     70.000    120.000
      34     37.500    110.700
      35     33.000    107.800

Dihedral Coeffs  

       1      0.000      7.250      0.000      0.000 
       2      0.000      5.124      0.000      0.000 
       3      0.000      0.000      0.000      0.000 
       4      0.000      0.000      0.000      0.000 
       5      0.000      0.000      0.462      0.000 
       6      0.000      0.000      0.462      0.000 
       7      0.000      0.000      0.462      0.000 
       8      0.000      0.000      0.462      0.000 
       9      0.000      0.000      0.000      0.000 
      10      0.000      0.000      0.300      0.000 
      11      0.000     10.750      0.000      0.000 
      12      0.000     10.750      0.000      0.000 
      13      0.000     10.750      0.000      0.000 
      14      0.000      0.000      0.000      0.000 
      15      0.000      7.250      0.000      0.000 
      16      0.000      0.000      0.462      0.000 
      17      0.000      0.000      0.300      0.000 
      18      0.000      0.000      0.300      0.000 
      19      4.669      5.124      0.000      0.000 
      20      0.000     10.750      0.000      0.000 
      21      0.000      0.000      0.000      0.000 
      22      0.000      0.000      0.300      0.000 
      23      0.000      0.000      0.300      0.000 
      24      0.000      7.250      0.000      0.000 
      25      0.000      0.000      0.000      0.000 
      26      0.000      0.000      0.300      0.000 
      27      0.000      0.000      0.300      0.000 
      28      0.000      0.000      0.000      0.000 
      29      0.000      0.000      0.300      0.000 
      30      0.000      0.000      0.000      0.000 
      31      0.000      0.000      0.000      0.000 
      32      0.000      0.000      0.300      0.000 
      33      0.000      0.000      0.000      0.000 
      34      0.000      0.000      0.300      0.000 
      35      4.669      5.124      0.000      0.000 
      36      0.000      7.250      0.000      0.000 
      37      0.000      0.000      0.000      0.000 
      38      0.000      0.000      0.462      0.000 
      39      0.000      0.000      0.300      0.000 
      40      0.000      0.000      0.300      0.000 
      41      0.000      0.000      0.000      0.000 
      42      0.000      5.124      0.000      0.000 

Improper Coeffs 

       1     10.500      -1       2 
       2      2.500      -1       2 
       3      2.500      -1       2 
       4      0.000      -1       2 
       5      0.000      -1       2 
       6      0.000      -1       2 
       7      0.000      -1       2 
       8      0.000      -1       2 
       9      0.000      -1       2 
      10      0.000      -1       2 
      11      0.000      -1       2 

Atoms 

    1  1  1  -0.432694  1.000  1.00000  0.00000
    2  1  2  0.222470  -0.484  1.00000  0.00000
    3  1  3  -0.362008  -1.131  1.00000  1.22079
    4  1  4  0.621654  -2.460  0.99828  0.83030
    5  1  5  -0.384746  -3.390  0.99642  1.62826
    6  1  6  -0.374854  -2.644  0.99727  -0.54315
    7  1  7  0.258570  -1.338  0.99873  -1.00256
    8  1  8  -0.133863  -1.102  0.99722  -2.48414
    9  1  9  -0.357353  -1.706  -0.25377  -3.12613
    10  1  10  -0.356354  -1.674  2.25748  -3.13585
    11  1  11  0.150827  1.388  1.00000  1.02438
    12  1  12  0.143840  1.388  1.89181  -0.50165
    13  1  13  0.143820  1.388  0.10817  -0.50167
    14  1  14  0.115309  -0.023  0.98192  -2.67967
    15  1  15  0.133820  -2.787  -0.31562  -2.95388
    16  1  16  0.119522  -1.247  -1.16093  -2.71789
    17  1  17  0.119608  -1.541  -0.25238  -4.20896
    18  1  18  0.133130  -2.760  2.32391  -3.00407
    19  1  19  0.119686  -1.469  2.25988  -4.21241
    20  1  20  0.119617  -1.225  3.15979  -2.70691

Bonds 

     1      1      2      1
     2      2      3      2
     3      3      4      3
     4      4      5      4
     5      5      6      4
     6      6      7      2
     7      7      8      7
     8      8      9      8
     9      9     10      8
    10     10     11      1
    11     11     12      1
    12     12     13      1
    13     13     14      8
    14     14     15      9
    15     15     16      9
    16     16     17      9
    17     17     18     10
    18     18     19     10
    19     19     20     10
    20     20      7      6

Angles 

     1      1      1      2      3
     2      2      2      3      4
     3      3      3      4      5
     4      4      3      4      6
     5      5      1      2      7
     6      6      2      7      8
     7      7      7      8      9
     8      8      7      8     10
     9      9      2      1     11
    10     10      2      1     12
    11     11      2      1     13
    12     12      7      8     14
    13     13      8      9     15
    14     14      8      9     16
    15     15      8      9     17
    16     16      8     10     18
    17     17      8     10     19
    18     18      8     10     20
    19     19     18     10     20
    20     20      5      4      6
    21     21     18     10     19
    22     22      4      6      7
    23     23     15      9     16
    24     24      2      7      6
    25     25      9      8     10
    26     26      6      7      8
    27     27     11      1     12
    28     28     12      1     13
    29     29     11      1     13
    30     30      9      8     14
    31     31     19     10     20
    32     32     15      9     17
    33     33      3      2      7
    34     34     10      8     14
    35     35     16      9     17

Dihedrals

     1      1      4      3      2      1 
     2      2      5      4      3      2 
     3      3      9      8      7      2 
     4      4     11      1      2      3 
     5      5     15      9      8      7 
     6      6     18     10      8      7 
     7      7     17      9      8      7 
     8      8     19     10      8      7 
     9      9     14      8      7      6 
    10     10     16      9      8     14 
    11     11      6      7      2      3 
    12     12      6      7      2      1 
    13     13      8      7      2      1 
    14     14     14      8      7      2 
    15     15      4      6      7      2 
    16     16     20     10      8      7 
    17     17     20     10      8     14 
    18     18     20     10      8      9 
    19     19      6      4      3      2 
    20     20      8      7      2      3 
    21     21     12      1      2      3 
    22     22     18     10      8      9 
    23     23     17      9      8     14 
    24     24      8      7      6      4 
    25     25     10      8      7      6 
    26     26     19     10      8      9 
    27     27     15      9      8     14 
    28     28      9      8      7      6 
    29     29     19     10      8     14 
    30     30     13      1      2      3 
    31     31     10      8      7      2 
    32     32     15      9      8     10 
    33     33     12      1      2      7 
    34     34     18     10      8     14 
    35     35      7      6      4      3 
    36     36      7      2      3      4 
    37     37     11      1      2      7 
    38     38     16      9      8      7 
    39     39     16      9      8     10 
    40     40     17      9      8     10 
    41     41     13      1      2      7 
    42     42      7      6      4      5 

Impropers

     1      1      4      3      5      6 
     2      2      2      1      3      7 
     3      3      7      2      6      8 
     4      4      8      9     10      7 
     5      5      1      2     11     12 
     6      6      1      2     11     13 
     7      7      8      9     14      7 
     8      8      9      8     15     16 
     9      9      9     17     15      8 
    10     10     10     19     18      8 
    11     11     10     20     18      8 

