LAMMPS data file Created by LigParGen - (Written by Leela S. Dodda)

      20 atoms
      19 bonds
      34 angles
      38 dihedrals
      11 impropers
 
      20 atom types
      19 bond types
      34 angle types
      38 dihedral types
      11 improper types
 
   -5.090160    44.909840 xlo xhi
   -0.570580    49.429420 ylo yhi
   -1.025280    48.974720 zlo zhi

Masses

       1     12.011  
       2     12.011  
       3     12.011  
       4     15.999  
       5     15.999  
       6     12.011  
       7     12.011  
       8     12.011  
       9      1.008  
      10      1.008  
      11      1.008  
      12      1.008  
      13      1.008  
      14      1.008  
      15      1.008  
      16      1.008  
      17      1.008  
      18      1.008  
      19      1.008  
      20      1.008  

Pair Coeffs 

       1      0.066  3.5000000 
       2      0.066  3.5000000 
       3      0.070  3.5500000 
       4      0.210  2.9600000 
       5      0.140  2.9000000 
       6      0.066  3.5000000 
       7      0.066  3.5000000 
       8      0.066  3.5000000 
       9      0.030  2.5000000 
      10      0.030  2.5000000 
      11      0.030  2.5000000 
      12      0.030  2.5000000 
      13      0.030  2.5000000 
      14      0.030  2.5000000 
      15      0.030  2.5000000 
      16      0.030  2.5000000 
      17      0.030  2.5000000 
      18      0.030  2.5000000 
      19      0.030  2.5000000 
      20      0.030  2.5000000 

Bond Coeffs 

       1   268.0000     1.5290 
       2   317.0000     1.5220 
       3   570.0000     1.2290 
       4   214.0000     1.3270 
       5   320.0000     1.4100 
       6   268.0000     1.5290 
       7   268.0000     1.5290 
       8   340.0000     1.0900 
       9   340.0000     1.0900 
      10   340.0000     1.0900 
      11   340.0000     1.0900 
      12   340.0000     1.0900 
      13   340.0000     1.0900 
      14   340.0000     1.0900 
      15   340.0000     1.0900 
      16   340.0000     1.0900 
      17   340.0000     1.0900 
      18   340.0000     1.0900 
      19   340.0000     1.0900 

Angle Coeffs 

       1     63.000    111.100
       2     80.000    120.400
       3     81.000    111.400
       4     83.000    116.900
       5     50.000    109.500
       6     50.000    109.500
       7     37.500    110.700
       8     37.500    110.700
       9     37.500    110.700
      10     37.500    110.700
      11     37.500    110.700
      12     35.000    109.500
      13     37.500    110.700
      14     37.500    110.700
      15     37.500    110.700
      16     37.500    110.700
      17     37.500    110.700
      18     37.500    110.700
      19     37.500    110.700
      20     35.000    109.500
      21     33.000    107.800
      22     33.000    107.800
      23     83.000    123.400
      24     33.000    107.800
      25     33.000    107.800
      26     33.000    107.800
      27     58.350    112.700
      28     35.000    109.500
      29     33.000    107.800
      30     33.000    107.800
      31     33.000    107.800
      32     33.000    107.800
      33     33.000    107.800
      34     37.500    110.700

Dihedral Coeffs  

       1      0.000      0.000      0.000      0.000 
       2      4.669      5.124      0.000      0.000 
       3     -1.220     -0.126      0.422      0.000 
       4      0.000      0.000     -0.100      0.000 
       5      0.000      0.000      0.468      0.000 
       6      0.000      0.000      0.468      0.000 
       7      0.000      0.000      0.468      0.000 
       8      0.000      0.000      0.300      0.000 
       9      0.000      0.000      0.300      0.000 
      10      0.000      0.000     -0.553      0.000 
      11      0.000      0.000     -0.100      0.000 
      12      0.000      0.000      0.300      0.000 
      13      0.000      0.000      0.468      0.000 
      14      0.000      0.000      0.300      0.000 
      15      0.000      5.124      0.000      0.000 
      16      0.000      0.000      0.300      0.000 
      17      0.000      0.000      0.198      0.000 
      18      0.000      0.000      0.300      0.000 
      19      0.000      0.000      0.000      0.000 
      20      0.000      0.000      0.468      0.000 
      21      0.000      0.000      0.300      0.000 
      22      0.000      0.000      0.300      0.000 
      23      0.000      0.000      0.132      0.000 
      24      0.000      0.000      0.132      0.000 
      25      0.000      0.000      0.000      0.000 
      26      0.000      0.000      0.300      0.000 
      27      0.000      0.000      0.300      0.000 
      28      0.000      0.000      0.300      0.000 
      29      0.000      0.000      0.300      0.000 
      30     -1.220     -0.126      0.422      0.000 
      31      0.000      0.000      0.300      0.000 
      32      0.000      0.000     -0.100      0.000 
      33      0.000      0.000      0.468      0.000 
      34      0.000      0.000      0.300      0.000 
      35      0.000      0.000      0.300      0.000 
      36      0.000      0.000      0.300      0.000 
      37      0.000      0.000      0.300      0.000 
      38      0.000      0.000      0.300      0.000 

Improper Coeffs 

       1     10.500      -1       2 
       2      0.000      -1       2 
       3      0.000      -1       2 
       4      0.000      -1       2 
       5      0.000      -1       2 
       6      0.000      -1       2 
       7      0.000      -1       2 
       8      0.000      -1       2 
       9      0.000      -1       2 
      10      0.000      -1       2 
      11      0.000      -1       2 

Atoms 

    1  1  1  -0.347968  1.000  1.00000  0.00000
    2  1  2  -0.281483  -0.519  1.00000  0.00000
    3  1  3  0.505747  -1.078  1.00000  1.40261
    4  1  4  -0.384028  -0.412  1.00000  2.42759
    5  1  5  -0.377442  -2.441  0.99837  1.34871
    6  1  6  0.108251  -3.118  0.99654  2.62050
    7  1  7  -0.368249  -3.186  2.41788  3.16844
    8  1  8  -0.362687  -4.519  0.44276  2.38954
    9  1  9  0.112114  1.382  0.99870  -1.02528
    10  1  10  0.128330  1.393  0.11628  0.51344
    11  1  11  0.127927  1.391  1.88637  0.51062
    12  1  12  0.138282  -0.882  0.10539  -0.51687
    13  1  13  0.138274  -0.882  1.89157  -0.52202
    14  1  14  0.125983  -2.596  0.33771  3.32573
    15  1  15  0.118530  -3.678  3.08717  2.45371
    16  1  16  0.136735  -2.183  2.82226  3.33694
    17  1  17  0.117379  -3.734  2.44935  4.11505
    18  1  18  0.122472  -5.067  1.05035  1.66109
    19  1  19  0.119838  -5.090  0.41150  3.32233
    20  1  20  0.121993  -4.464  -0.57058  1.97712

Bonds 

     1      1      2      1
     2      2      3      2
     3      3      4      3
     4      4      5      3
     5      5      6      5
     6      6      7      6
     7      7      8      6
     8      8      9      1
     9      9     10      1
    10     10     11      1
    11     11     12      2
    12     12     13      2
    13     13     14      6
    14     14     15      7
    15     15     16      7
    16     16     17      7
    17     17     18      8
    18     18     19      8
    19     19     20      8

Angles 

     1      1      1      2      3
     2      2      2      3      4
     3      3      2      3      5
     4      4      3      5      6
     5      5      5      6      7
     6      6      5      6      8
     7      7      2      1      9
     8      8      2      1     10
     9      9      2      1     11
    10     10      1      2     12
    11     11      1      2     13
    12     12      5      6     14
    13     13      6      7     15
    14     14      6      7     16
    15     15      6      7     17
    16     16      6      8     18
    17     17      6      8     19
    18     18      6      8     20
    19     19      7      6     14
    20     20      3      2     13
    21     21     12      2     13
    22     22     19      8     20
    23     23      4      3      5
    24     24     15      7     16
    25     25     15      7     17
    26     26     16      7     17
    27     27      7      6      8
    28     28      3      2     12
    29     29     18      8     19
    30     30     10      1     11
    31     31      9      1     10
    32     32      9      1     11
    33     33     18      8     20
    34     34      8      6     14

Dihedrals

     1      1      4      3      2      1 
     2      2      6      5      3      2 
     3      3      7      6      5      3 
     4      4      9      1      2      3 
     5      5     15      7      6      5 
     6      6     18      8      6      5 
     7      7     19      8      6      5 
     8      8     17      7      6     14 
     9      9     12      2      1      9 
    10     10      5      3      2      1 
    11     11     11      1      2      3 
    12     12     19      8      6      7 
    13     13     17      7      6      5 
    14     14     16      7      6      8 
    15     15      6      5      3      4 
    16     16     20      8      6      7 
    17     17     14      6      5      3 
    18     18     13      2      1     11 
    19     19     12      2      3      4 
    20     20     20      8      6      5 
    21     21     18      8      6      7 
    22     22     18      8      6     14 
    23     23     13      2      3      5 
    24     24     12      2      3      5 
    25     25     13      2      3      4 
    26     26     15      7      6      8 
    27     27     12      2      1     11 
    28     28     13      2      1     10 
    29     29     16      7      6     14 
    30     30      8      6      5      3 
    31     31     19      8      6     14 
    32     32     10      1      2      3 
    33     33     16      7      6      5 
    34     34     13      2      1      9 
    35     35     15      7      6     14 
    36     36     12      2      1     10 
    37     37     20      8      6     14 
    38     38     17      7      6      8 

Impropers

     1      1      3      2      4      5 
     2      2      6      5      7      8 
     3      3      1     10      9      2 
     4      4      1      2     11      9 
     5      5      2      1      3     12 
     6      6      2      1      3     13 
     7      7      6      5     14      7 
     8      8      7     15      6     16 
     9      9      7     17     15      6 
    10     10      8     18     19      6 
    11     11      8     18     20      6 

