LAMMPS data file Created by LigParGen - (Written by Leela S. Dodda)

      17 atoms
      17 bonds
      29 angles
      33 dihedrals
       9 impropers
 
      17 atom types
      17 bond types
      29 angle types
      33 dihedral types
       9 improper types
 
   -3.089360    46.910640 xlo xhi
   -1.826470    48.173530 ylo yhi
   -1.025050    48.974950 zlo zhi

Masses

       1     12.011  
       2     12.011  
       3     12.011  
       4     15.999  
       5     12.011  
       6     15.999  
       7     15.999  
       8     12.011  
       9     12.011  
      10      1.008  
      11      1.008  
      12      1.008  
      13      1.008  
      14      1.008  
      15      1.008  
      16      1.008  
      17      1.008  

Pair Coeffs 

       1      0.066  3.5000000 
       2      0.066  3.5000000 
       3      0.070  3.5500000 
       4      0.140  2.9000000 
       5      0.070  3.5500000 
       6      0.210  2.9600000 
       7      0.140  2.9000000 
       8      0.070  3.5500000 
       9      0.066  3.5000000 
      10      0.030  2.5000000 
      11      0.030  2.5000000 
      12      0.030  2.5000000 
      13      0.030  2.5000000 
      14      0.030  2.5000000 
      15      0.030  2.5000000 
      16      0.030  2.5000000 
      17      0.030  2.5000000 

Bond Coeffs 

       1   268.0000     1.5290 
       2   317.0000     1.5040 
       3   340.0000     1.3600 
       4   214.0000     1.3270 
       5   570.0000     1.2290 
       6   214.0000     1.3270 
       7   512.0000     1.3750 
       8   317.0000     1.5040 
       9   340.0000     1.0900 
      10   340.0000     1.0900 
      11   340.0000     1.0900 
      12   340.0000     1.0900 
      13   340.0000     1.0900 
      14   340.0000     1.0900 
      15   340.0000     1.0900 
      16   340.0000     1.0900 
      17   340.0000     1.3600 

Angle Coeffs 

       1     63.000    114.000
       2     70.000    121.600
       3     83.000    116.900
       4     83.000    123.400
       5     69.900    118.180
       6     70.000    120.000
       7     70.000    120.000
       8     37.500    110.700
       9     37.500    110.700
      10     37.500    110.700
      11     37.500    110.700
      12     37.500    110.700
      13     35.000    109.500
      14     35.000    109.500
      15     35.000    109.500
      16     83.000    116.900
      17     35.000    109.500
      18     70.000    120.000
      19     33.000    107.800
      20     33.000    107.800
      21     33.000    107.800
      22     33.000    107.800
      23     83.000    123.400
      24     33.000    107.800
      25     33.000    107.800
      26     35.000    109.500
      27     33.000    107.800
      28     70.000    121.600
      29     70.000    120.000

Dihedral Coeffs  

       1      0.000      0.000      0.000      0.000 
       2      0.000      7.250      0.000      0.000 
       3      0.000      5.124      0.000      0.000 
       4      0.000      0.000      0.462      0.000 
       5      0.000      0.000      0.000      0.000 
       6      0.000      0.000      0.000      0.000 
       7      0.000      7.250      0.000      0.000 
       8      0.000      0.000      0.000      0.000 
       9      0.000      0.000      0.462      0.000 
      10      0.000      5.124      0.000      0.000 
      11      0.000      0.000      0.300      0.000 
      12      0.000      0.000      0.300      0.000 
      13      0.000      0.000      0.462      0.000 
      14      0.000     10.750      0.000      0.000 
      15      4.669      5.124      0.000      0.000 
      16      0.000     10.750      0.000      0.000 
      17      0.000      0.000      0.300      0.000 
      18      0.000     10.750      0.000      0.000 
      19      0.000      0.000      0.300      0.000 
      20      0.000      0.000      0.000      0.000 
      21      0.000      7.250      0.000      0.000 
      22      0.000      0.000      0.000      0.000 
      23      0.000      0.000      0.000      0.000 
      24      0.000      0.000      0.300      0.000 
      25      0.000      0.000      0.000      0.000 
      26      0.000      0.000      0.000      0.000 
      27      0.000     10.750      0.000      0.000 
      28      0.000      0.000      0.000      0.000 
      29      0.000      0.000      0.000      0.000 
      30      4.669      5.124      0.000      0.000 
      31      0.000      0.000      0.000      0.000 
      32      0.000      0.000      0.300      0.000 
      33      0.000      7.250      0.000      0.000 

Improper Coeffs 

       1     10.500      -1       2 
       2      2.500      -1       2 
       3      2.500      -1       2 
       4      0.000      -1       2 
       5      0.000      -1       2 
       6      0.000      -1       2 
       7      0.000      -1       2 
       8      0.000      -1       2 
       9      0.000      -1       2 

Atoms 

    1  1  1  -0.356908  1.000  1.00000  0.00000
    2  1  2  -0.276642  -0.521  1.00000  0.00000
    3  1  3  0.251471  -1.085  1.00000  1.38033
    4  1  4  -0.368393  -0.788  2.06225  2.21258
    5  1  5  0.621679  -1.474  1.70842  3.36543
    6  1  6  -0.383840  -1.473  2.39782  4.37812
    7  1  7  -0.361700  -2.160  0.50666  3.26839
    8  1  8  0.227634  -1.859  0.12077  1.97997
    9  1  9  -0.433130  -2.416  -1.15666  1.47217
    10  1  10  0.122133  1.376  0.91915  -1.02505
    11  1  11  0.122676  1.398  0.15733  0.57546
    12  1  12  0.136523  1.395  1.92713  0.42935
    13  1  13  0.125248  -0.872  0.12157  -0.55376
    14  1  14  0.134506  -0.885  1.88201  -0.53876
    15  1  15  0.150786  -2.988  -1.67227  2.25047
    16  1  16  0.143507  -1.614  -1.82647  1.14786
    17  1  17  0.144450  -3.089  -0.97309  0.62879

Bonds 

     1      1      2      1
     2      2      3      2
     3      3      4      3
     4      4      5      4
     5      5      6      5
     6      6      7      5
     7      7      8      3
     8      8      9      8
     9      9     10      1
    10     10     11      1
    11     11     12      1
    12     12     13      2
    13     13     14      2
    14     14     15      9
    15     15     16      9
    16     16     17      9
    17     17      8      7

Angles 

     1      1      1      2      3
     2      2      2      3      4
     3      3      3      4      5
     4      4      4      5      6
     5      5      4      5      7
     6      6      2      3      8
     7      7      3      8      9
     8      8      2      1     10
     9      9      2      1     11
    10     10      2      1     12
    11     11      1      2     13
    12     12      1      2     14
    13     13      8      9     15
    14     14      8      9     16
    15     15      8      9     17
    16     16      5      7      8
    17     17      3      2     14
    18     18      3      8      7
    19     19     13      2     14
    20     20     15      9     16
    21     21     16      9     17
    22     22     11      1     12
    23     23      6      5      7
    24     24     10      1     12
    25     25     10      1     11
    26     26      3      2     13
    27     27     15      9     17
    28     28      7      8      9
    29     29      4      3      8

Dihedrals

     1      1      4      3      2      1 
     2      2      5      4      3      2 
     3      3      6      5      4      3 
     4      4     10      1      2      3 
     5      5     15      9      8      3 
     6      6     17      9      8      7 
     7      7      9      8      7      5 
     8      8     14      2      3      8 
     9      9     11      1      2      3 
    10     10      8      7      5      6 
    11     11     13      2      1     12 
    12     12     14      2      1     11 
    13     13     12      1      2      3 
    14     14      7      8      3      4 
    15     15      7      5      4      3 
    16     16      9      8      3      2 
    17     17     13      2      1     11 
    18     18      7      8      3      2 
    19     19     14      2      1     10 
    20     20     17      9      8      3 
    21     21      8      3      4      5 
    22     22     14      2      3      4 
    23     23     13      2      3      4 
    24     24     13      2      1     10 
    25     25     15      9      8      7 
    26     26     16      9      8      3 
    27     27      9      8      3      4 
    28     28      8      3      2      1 
    29     29     13      2      3      8 
    30     30      8      7      5      4 
    31     31     16      9      8      7 
    32     32     14      2      1     12 
    33     33      5      7      8      3 

Impropers

     1      1      5      4      6      7 
     2      2      3      2      4      8 
     3      3      8      9      3      7 
     4      4      1      2     11     10 
     5      5      1      2     12     10 
     6      6      2      1      3     13 
     7      7      2      1      3     14 
     8      8      9      8     15     16 
     9      9      9     17     15      8 

