LAMMPS data file Created by LigParGen - (Written by Leela S. Dodda)

      21 atoms
      20 bonds
      35 angles
      37 dihedrals
      11 impropers
 
      21 atom types
      20 bond types
      35 angle types
      37 dihedral types
      11 improper types
 
   -6.640350    43.359650 xlo xhi
   -1.935500    48.064500 ylo yhi
   -1.022400    48.977600 zlo zhi

Masses

       1     12.011  
       2     12.011  
       3     12.011  
       4     15.999  
       5     12.011  
       6     15.999  
       7     15.999  
       8     12.011  
       9     12.011  
      10      1.008  
      11      1.008  
      12      1.008  
      13      1.008  
      14      1.008  
      15      1.008  
      16      1.008  
      17      1.008  
      18      1.008  
      19      1.008  
      20      1.008  
      21      1.008  

Pair Coeffs 

       1      0.066  3.5000000 
       2      0.066  3.5000000 
       3      0.066  3.5000000 
       4      0.140  2.9000000 
       5      0.070  3.5500000 
       6      0.210  2.9600000 
       7      0.140  2.9000000 
       8      0.066  3.5000000 
       9      0.066  3.5000000 
      10      0.030  2.5000000 
      11      0.030  2.5000000 
      12      0.030  2.5000000 
      13      0.030  2.5000000 
      14      0.030  2.5000000 
      15      0.030  2.5000000 
      16      0.030  2.5000000 
      17      0.030  2.5000000 
      18      0.030  2.5000000 
      19      0.030  2.5000000 
      20      0.030  2.5000000 
      21      0.030  2.5000000 

Bond Coeffs 

       1   268.0000     1.5290 
       2   268.0000     1.5290 
       3   320.0000     1.4100 
       4   214.0000     1.3270 
       5   570.0000     1.2290 
       6   214.0000     1.3270 
       7   320.0000     1.4100 
       8   268.0000     1.5290 
       9   340.0000     1.0900 
      10   340.0000     1.0900 
      11   340.0000     1.0900 
      12   340.0000     1.0900 
      13   340.0000     1.0900 
      14   340.0000     1.0900 
      15   340.0000     1.0900 
      16   340.0000     1.0900 
      17   340.0000     1.0900 
      18   340.0000     1.0900 
      19   340.0000     1.0900 
      20   340.0000     1.0900 

Angle Coeffs 

       1     58.350    112.700
       2     50.000    109.500
       3     83.000    116.900
       4     83.000    123.400
       5     69.900    118.180
       6     83.000    116.900
       7     50.000    109.500
       8     37.500    110.700
       9     37.500    110.700
      10     37.500    110.700
      11     37.500    110.700
      12     37.500    110.700
      13     37.500    110.700
      14     37.500    110.700
      15     35.000    109.500
      16     35.000    109.500
      17     37.500    110.700
      18     37.500    110.700
      19     37.500    110.700
      20     37.500    110.700
      21     33.000    107.800
      22     33.000    107.800
      23     33.000    107.800
      24     33.000    107.800
      25     33.000    107.800
      26     83.000    123.400
      27     37.500    110.700
      28     33.000    107.800
      29     33.000    107.800
      30     37.500    110.700
      31     35.000    109.500
      32     33.000    107.800
      33     37.500    110.700
      34     35.000    109.500
      35     33.000    107.800

Dihedral Coeffs  

       1      1.711     -0.500      0.663      0.000 
       2     -1.220     -0.126      0.422      0.000 
       3      0.000      5.124      0.000      0.000 
       4      4.669      5.124      0.000      0.000 
       5     -1.220     -0.126      0.422      0.000 
       6      0.000      0.000      0.300      0.000 
       7      0.000      0.000      0.468      0.000 
       8      0.000      0.000      0.300      0.000 
       9      0.000      0.000      0.300      0.000 
      10      0.000      0.000      0.198      0.000 
      11      0.000      0.000      0.468      0.000 
      12      0.000      0.000      0.300      0.000 
      13      0.000      0.000      0.300      0.000 
      14      0.000      0.000      0.300      0.000 
      15      0.000      0.000      0.300      0.000 
      16      0.000      0.000      0.300      0.000 
      17      0.000      0.000      0.300      0.000 
      18      0.000      0.000      0.300      0.000 
      19      0.000      0.000      0.300      0.000 
      20      0.000      0.000      0.300      0.000 
      21      0.000      0.000      0.300      0.000 
      22      0.000      0.000      0.300      0.000 
      23      0.000      5.124      0.000      0.000 
      24      0.000      0.000      0.198      0.000 
      25      4.669      5.124      0.000      0.000 
      26      0.000      0.000      0.300      0.000 
      27      0.000      0.000      0.300      0.000 
      28      0.000      0.000      0.300      0.000 
      29      0.000      0.000      0.468      0.000 
      30      0.000      0.000      0.468      0.000 
      31      0.000      0.000      0.300      0.000 
      32      0.000      0.000      0.300      0.000 
      33      0.000      0.000      0.198      0.000 
      34      0.000      0.000      0.300      0.000 
      35      0.000      0.000      0.198      0.000 
      36      0.000      0.000      0.468      0.000 
      37      0.000      0.000      0.300      0.000 

Improper Coeffs 

       1     10.500      -1       2 
       2      0.000      -1       2 
       3      0.000      -1       2 
       4      0.000      -1       2 
       5      0.000      -1       2 
       6      0.000      -1       2 
       7      0.000      -1       2 
       8      0.000      -1       2 
       9      0.000      -1       2 
      10      0.000      -1       2 
      11      0.000      -1       2 

Atoms 

    1  1  1  -0.362749  1.000  1.00000  0.00000
    2  1  2  -0.215519  -0.521  1.00000  0.00000
    3  1  3  -0.033060  -1.049  1.00000  1.42999
    4  1  4  -0.366146  -2.475  1.10459  1.46356
    5  1  5  0.636854  -3.156  -0.05550  1.63126
    6  1  6  -0.396508  -2.674  -1.17998  1.60865
    7  1  7  -0.359894  -4.458  0.25492  1.82875
    8  1  8  -0.042348  -5.368  -0.84750  1.91300
    9  1  9  -0.364921  -5.915  -1.11836  0.52564
    10  1  10  0.122249  1.389  1.00129  -1.02240
    11  1  11  0.121287  1.388  0.11386  0.51322
    12  1  12  0.115982  1.387  1.88717  0.51271
    13  1  13  0.124954  -0.896  0.12612  -0.54513
    14  1  14  0.118434  -0.894  1.88019  -0.53764
    15  1  15  0.119740  -0.671  1.87954  1.96061
    16  1  16  0.135431  -0.696  0.11947  1.97987
    17  1  17  0.124653  -6.181  -0.55335  2.58453
    18  1  18  0.140416  -4.898  -1.73998  2.34258
    19  1  19  0.128365  -6.400  -0.21934  0.12939
    20  1  20  0.119206  -6.640  -1.93550  0.54016
    21  1  21  0.133574  -5.105  -1.37011  -0.16549

Bonds 

     1      1      2      1
     2      2      3      2
     3      3      4      3
     4      4      5      4
     5      5      6      5
     6      6      7      5
     7      7      8      7
     8      8      9      8
     9      9     10      1
    10     10     11      1
    11     11     12      1
    12     12     13      2
    13     13     14      2
    14     14     15      3
    15     15     16      3
    16     16     17      8
    17     17     18      8
    18     18     19      9
    19     19     20      9
    20     20     21      9

Angles 

     1      1      1      2      3
     2      2      2      3      4
     3      3      3      4      5
     4      4      4      5      6
     5      5      4      5      7
     6      6      5      7      8
     7      7      7      8      9
     8      8      2      1     10
     9      9      2      1     11
    10     10      2      1     12
    11     11      1      2     13
    12     12      1      2     14
    13     13      2      3     15
    14     14      2      3     16
    15     15      7      8     17
    16     16      7      8     18
    17     17      8      9     19
    18     18      8      9     20
    19     19      8      9     21
    20     20      3      2     14
    21     21     13      2     14
    22     22     19      9     21
    23     23     17      8     18
    24     24     15      3     16
    25     25     11      1     12
    26     26      6      5      7
    27     27      9      8     18
    28     28     10      1     12
    29     29     10      1     11
    30     30      3      2     13
    31     31      4      3     16
    32     32     20      9     21
    33     33      9      8     17
    34     34      4      3     15
    35     35     19      9     20

Dihedrals

     1      1      4      3      2      1 
     2      2      5      4      3      2 
     3      3      6      5      4      3 
     4      4      8      7      5      4 
     5      5      9      8      7      5 
     6      6     10      1      2      3 
     7      7     19      9      8      7 
     8      8     20      9      8     18 
     9      9     21      9      8     17 
    10     10     15      3      4      5 
    11     11     21      9      8      7 
    12     12     15      3      2      1 
    13     13     11      1      2      3 
    14     14     16      3      2     13 
    15     15     15      3      2     14 
    16     16     19      9      8     18 
    17     17     20      9      8     17 
    18     18     21      9      8     18 
    19     19     19      9      8     17 
    20     20     13      2      1     12 
    21     21     14      2      1     11 
    22     22     12      1      2      3 
    23     23      8      7      5      6 
    24     24     18      8      7      5 
    25     25      7      5      4      3 
    26     26     13      2      1     11 
    27     27     14      2      1     10 
    28     28     16      3      2      1 
    29     29     14      2      3      4 
    30     30     13      2      3      4 
    31     31     16      3      2     14 
    32     32     13      2      1     10 
    33     33     17      8      7      5 
    34     34     15      3      2     13 
    35     35     16      3      4      5 
    36     36     20      9      8      7 
    37     37     14      2      1     12 

Impropers

     1      1      5      4      6      7 
     2      2      1      2     11     10 
     3      3      1      2     12     10 
     4      4      2      1      3     13 
     5      5      2      1      3     14 
     6      6      3      2      4     15 
     7      7      3      2      4     16 
     8      8      8     17      9      7 
     9      9      8      9     18      7 
    10     10      9     19     20      8 
    11     11      9     19     21      8 

