LAMMPS data file Created by LigParGen - (Written by Leela S. Dodda)

      24 atoms
      23 bonds
      41 angles
      46 dihedrals
      13 impropers
 
      24 atom types
      23 bond types
      41 angle types
      46 dihedral types
      13 improper types
 
   -8.143800    41.856200 xlo xhi
   -2.749020    47.250980 ylo yhi
   -1.021660    48.978340 zlo zhi

Masses

       1     12.011  
       2     12.011  
       3     12.011  
       4     15.999  
       5     12.011  
       6     15.999  
       7     15.999  
       8     12.011  
       9     12.011  
      10     12.011  
      11      1.008  
      12      1.008  
      13      1.008  
      14      1.008  
      15      1.008  
      16      1.008  
      17      1.008  
      18      1.008  
      19      1.008  
      20      1.008  
      21      1.008  
      22      1.008  
      23      1.008  
      24      1.008  

Pair Coeffs 

       1      0.066  3.5000000 
       2      0.066  3.5000000 
       3      0.066  3.5000000 
       4      0.140  2.9000000 
       5      0.070  3.5500000 
       6      0.210  2.9600000 
       7      0.140  2.9000000 
       8      0.066  3.5000000 
       9      0.066  3.5000000 
      10      0.066  3.5000000 
      11      0.030  2.5000000 
      12      0.030  2.5000000 
      13      0.030  2.5000000 
      14      0.030  2.5000000 
      15      0.030  2.5000000 
      16      0.030  2.5000000 
      17      0.030  2.5000000 
      18      0.030  2.5000000 
      19      0.030  2.5000000 
      20      0.030  2.5000000 
      21      0.030  2.5000000 
      22      0.030  2.5000000 
      23      0.030  2.5000000 
      24      0.030  2.5000000 

Bond Coeffs 

       1   268.0000     1.5290 
       2   268.0000     1.5290 
       3   320.0000     1.4100 
       4   214.0000     1.3270 
       5   570.0000     1.2290 
       6   214.0000     1.3270 
       7   320.0000     1.4100 
       8   268.0000     1.5290 
       9   268.0000     1.5290 
      10   340.0000     1.0900 
      11   340.0000     1.0900 
      12   340.0000     1.0900 
      13   340.0000     1.0900 
      14   340.0000     1.0900 
      15   340.0000     1.0900 
      16   340.0000     1.0900 
      17   340.0000     1.0900 
      18   340.0000     1.0900 
      19   340.0000     1.0900 
      20   340.0000     1.0900 
      21   340.0000     1.0900 
      22   340.0000     1.0900 
      23   340.0000     1.0900 

Angle Coeffs 

       1     58.350    112.700
       2     50.000    109.500
       3     83.000    116.900
       4     83.000    123.400
       5     69.900    118.180
       6     83.000    116.900
       7     50.000    109.500
       8     58.350    112.700
       9     37.500    110.700
      10     37.500    110.700
      11     37.500    110.700
      12     37.500    110.700
      13     37.500    110.700
      14     37.500    110.700
      15     37.500    110.700
      16     35.000    109.500
      17     35.000    109.500
      18     37.500    110.700
      19     37.500    110.700
      20     37.500    110.700
      21     37.500    110.700
      22     37.500    110.700
      23     37.500    110.700
      24     37.500    110.700
      25     33.000    107.800
      26     33.000    107.800
      27     33.000    107.800
      28     37.500    110.700
      29     33.000    107.800
      30     33.000    107.800
      31     83.000    123.400
      32     33.000    107.800
      33     37.500    110.700
      34     33.000    107.800
      35     33.000    107.800
      36     37.500    110.700
      37     35.000    109.500
      38     35.000    109.500
      39     33.000    107.800
      40     33.000    107.800
      41     37.500    110.700

Dihedral Coeffs  

       1      1.711     -0.500      0.663      0.000 
       2     -1.220     -0.126      0.422      0.000 
       3      0.000      5.124      0.000      0.000 
       4      4.669      5.124      0.000      0.000 
       5     -1.220     -0.126      0.422      0.000 
       6      1.711     -0.500      0.663      0.000 
       7      0.000      0.000      0.300      0.000 
       8      0.000      0.000      0.300      0.000 
       9      0.000      0.000      0.300      0.000 
      10      0.000      0.000      0.468      0.000 
      11      0.000      0.000      0.468      0.000 
      12      0.000      0.000      0.300      0.000 
      13      0.000      0.000      0.300      0.000 
      14      0.000      0.000      0.300      0.000 
      15      0.000      0.000      0.300      0.000 
      16      0.000      0.000      0.300      0.000 
      17      0.000      0.000      0.300      0.000 
      18      0.000      0.000      0.300      0.000 
      19      0.000      0.000      0.300      0.000 
      20      0.000      0.000      0.300      0.000 
      21      0.000      0.000      0.300      0.000 
      22      0.000      0.000      0.300      0.000 
      23      0.000      0.000      0.300      0.000 
      24      0.000      0.000      0.300      0.000 
      25      0.000      0.000      0.300      0.000 
      26      0.000      5.124      0.000      0.000 
      27      0.000      0.000      0.198      0.000 
      28      4.669      5.124      0.000      0.000 
      29      0.000      0.000      0.300      0.000 
      30      0.000      0.000      0.300      0.000 
      31      0.000      0.000      0.468      0.000 
      32      0.000      0.000      0.198      0.000 
      33      0.000      0.000      0.300      0.000 
      34      0.000      0.000      0.300      0.000 
      35      0.000      0.000      0.198      0.000 
      36      0.000      0.000      0.300      0.000 
      37      0.000      0.000      0.300      0.000 
      38      0.000      0.000      0.300      0.000 
      39      0.000      0.000      0.300      0.000 
      40      0.000      0.000      0.300      0.000 
      41      0.000      0.000      0.198      0.000 
      42      0.000      0.000      0.468      0.000 
      43      0.000      0.000      0.300      0.000 
      44      0.000      0.000      0.300      0.000 
      45      0.000      0.000      0.300      0.000 
      46      0.000      0.000      0.300      0.000 

Improper Coeffs 

       1     10.500      -1       2 
       2      0.000      -1       2 
       3      0.000      -1       2 
       4      0.000      -1       2 
       5      0.000      -1       2 
       6      0.000      -1       2 
       7      0.000      -1       2 
       8      0.000      -1       2 
       9      0.000      -1       2 
      10      0.000      -1       2 
      11      0.000      -1       2 
      12      0.000      -1       2 
      13      0.000      -1       2 

Atoms 

    1  1  1  -0.362802  1.000  1.00000  0.00000
    2  1  2  -0.218140  -0.524  1.00000  0.00000
    3  1  3  -0.029506  -1.058  1.00000  1.42801
    4  1  4  -0.362884  -2.479  1.17892  1.47841
    5  1  5  0.627507  -3.245  0.06133  1.51595
    6  1  6  -0.392827  -2.847  -1.08914  1.39447
    7  1  7  -0.366059  -4.537  0.45240  1.65344
    8  1  8  -0.030955  -5.535  -0.47183  1.22566
    9  1  9  -0.215734  -6.287  -1.11184  2.38853
    10  1  10  -0.363298  -7.435  -1.96208  1.85838
    11  1  11  0.122697  1.392  0.99871  -1.02166
    12  1  12  0.121076  1.389  0.11628  0.51618
    13  1  13  0.116250  1.387  1.88965  0.50842
    14  1  14  0.126854  -0.894  0.12507  -0.54866
    15  1  15  0.118739  -0.891  1.87885  -0.54536
    16  1  16  0.120061  -0.632  1.85116  1.97049
    17  1  17  0.133361  -0.756  0.09470  1.96579
    18  1  18  0.133133  -5.117  -1.23508  0.56393
    19  1  19  0.118492  -6.237  0.11608  0.62609
    20  1  20  0.118960  -6.676  -0.33751  3.05955
    21  1  21  0.125407  -5.606  -1.72759  2.98599
    22  1  22  0.116250  -8.144  -1.34979  1.28898
    23  1  23  0.122763  -7.981  -2.43279  2.67978
    24  1  24  0.120657  -7.062  -2.74902  1.19460

Bonds 

     1      1      2      1
     2      2      3      2
     3      3      4      3
     4      4      5      4
     5      5      6      5
     6      6      7      5
     7      7      8      7
     8      8      9      8
     9      9     10      9
    10     10     11      1
    11     11     12      1
    12     12     13      1
    13     13     14      2
    14     14     15      2
    15     15     16      3
    16     16     17      3
    17     17     18      8
    18     18     19      8
    19     19     20      9
    20     20     21      9
    21     21     22     10
    22     22     23     10
    23     23     24     10

Angles 

     1      1      1      2      3
     2      2      2      3      4
     3      3      3      4      5
     4      4      4      5      6
     5      5      4      5      7
     6      6      5      7      8
     7      7      7      8      9
     8      8      8      9     10
     9      9      2      1     11
    10     10      2      1     12
    11     11      2      1     13
    12     12      1      2     14
    13     13      1      2     15
    14     14      2      3     16
    15     15      2      3     17
    16     16      7      8     18
    17     17      7      8     19
    18     18      8      9     20
    19     19      8      9     21
    20     20      9     10     22
    21     21      9     10     23
    22     22      9     10     24
    23     23      3      2     14
    24     24      3      2     15
    25     25     11      1     13
    26     26     22     10     23
    27     27     14      2     15
    28     28      9      8     19
    29     29     22     10     24
    30     30     11      1     12
    31     31      6      5      7
    32     32     12      1     13
    33     33      9      8     18
    34     34     18      8     19
    35     35     23     10     24
    36     36     10      9     21
    37     37      4      3     16
    38     38      4      3     17
    39     39     16      3     17
    40     40     20      9     21
    41     41     10      9     20

Dihedrals

     1      1      4      3      2      1 
     2      2      5      4      3      2 
     3      3      6      5      4      3 
     4      4      8      7      5      4 
     5      5      9      8      7      5 
     6      6     10      9      8      7 
     7      7     11      1      2      3 
     8      8     22     10      9      8 
     9      9     20      9      8     18 
    10     10     21      9      8      7 
    11     11     15      2      3      4 
    12     12     18      8      9     10 
    13     13     23     10      9     21 
    14     14     24     10      9      8 
    15     15     24     10      9     20 
    16     16     14      2      1     13 
    17     17     15      2      1     12 
    18     18     17      3      2     14 
    19     19     21      9      8     19 
    20     20     15      2      1     11 
    21     21     21      9      8     18 
    22     22     20      9      8     19 
    23     23     17      3      2     15 
    24     24     14      2      1     11 
    25     25     12      1      2      3 
    26     26      8      7      5      6 
    27     27     18      8      7      5 
    28     28      7      5      4      3 
    29     29     19      8      9     10 
    30     30     16      3      2      1 
    31     31     14      2      3      4 
    32     32     17      3      4      5 
    33     33     17      3      2      1 
    34     34     16      3      2     14 
    35     35     19      8      7      5 
    36     36     24     10      9     21 
    37     37     13      1      2      3 
    38     38     23     10      9     20 
    39     39     22     10      9     21 
    40     40     16      3      2     15 
    41     41     16      3      4      5 
    42     42     20      9      8      7 
    43     43     14      2      1     12 
    44     44     23     10      9      8 
    45     45     22     10      9     20 
    46     46     15      2      1     13 

Impropers

     1      1      5      4      6      7 
     2      2      1      2     11     12 
     3      3      1      2     11     13 
     4      4      2      1      3     14 
     5      5      2      1      3     15 
     6      6      3      2      4     16 
     7      7      3     17      2      4 
     8      8      8      9     18      7 
     9      9      8      9     19      7 
    10     10      9     10     20      8 
    11     11      9     10     21      8 
    12     12     10      9     22     23 
    13     13     10      9     22     24 

