LAMMPS data file Created by LigParGen - (Written by Leela S. Dodda)

      20 atoms
      19 bonds
      34 angles
      38 dihedrals
      11 impropers
 
      20 atom types
      19 bond types
      34 angle types
      38 dihedral types
      11 improper types
 
   -6.360280    43.639720 xlo xhi
   -2.150950    47.849050 ylo yhi
   -1.027420    48.972580 zlo zhi

Masses

       1     12.011  
       2     12.011  
       3     12.011  
       4     15.999  
       5     12.011  
       6     15.999  
       7     12.011  
       8     12.011  
       9      1.008  
      10      1.008  
      11      1.008  
      12      1.008  
      13      1.008  
      14      1.008  
      15      1.008  
      16      1.008  
      17      1.008  
      18      1.008  
      19      1.008  
      20      1.008  

Pair Coeffs 

       1      0.066  3.5000000 
       2      0.066  3.5000000 
       3      0.066  3.5000000 
       4      0.140  2.9000000 
       5      0.070  3.5500000 
       6      0.210  2.9600000 
       7      0.066  3.5000000 
       8      0.066  3.5000000 
       9      0.030  2.5000000 
      10      0.030  2.5000000 
      11      0.030  2.5000000 
      12      0.030  2.5000000 
      13      0.030  2.5000000 
      14      0.030  2.5000000 
      15      0.030  2.5000000 
      16      0.030  2.5000000 
      17      0.030  2.5000000 
      18      0.030  2.5000000 
      19      0.030  2.5000000 
      20      0.030  2.5000000 

Bond Coeffs 

       1   268.0000     1.5290 
       2   268.0000     1.5290 
       3   320.0000     1.4100 
       4   214.0000     1.3270 
       5   570.0000     1.2290 
       6   317.0000     1.5220 
       7   268.0000     1.5290 
       8   340.0000     1.0900 
       9   340.0000     1.0900 
      10   340.0000     1.0900 
      11   340.0000     1.0900 
      12   340.0000     1.0900 
      13   340.0000     1.0900 
      14   340.0000     1.0900 
      15   340.0000     1.0900 
      16   340.0000     1.0900 
      17   340.0000     1.0900 
      18   340.0000     1.0900 
      19   340.0000     1.0900 

Angle Coeffs 

       1     58.350    112.700
       2     50.000    109.500
       3     83.000    116.900
       4     83.000    123.400
       5     81.000    111.400
       6     63.000    111.100
       7     37.500    110.700
       8     37.500    110.700
       9     37.500    110.700
      10     37.500    110.700
      11     37.500    110.700
      12     37.500    110.700
      13     37.500    110.700
      14     35.000    109.500
      15     35.000    109.500
      16     37.500    110.700
      17     37.500    110.700
      18     37.500    110.700
      19     33.000    107.800
      20     33.000    107.800
      21     33.000    107.800
      22     33.000    107.800
      23     33.000    107.800
      24     80.000    120.400
      25     33.000    107.800
      26     33.000    107.800
      27     37.500    110.700
      28     35.000    109.500
      29     33.000    107.800
      30     37.500    110.700
      31     33.000    107.800
      32     37.500    110.700
      33     35.000    109.500
      34     37.500    110.700

Dihedral Coeffs  

       1      1.711     -0.500      0.663      0.000 
       2     -1.220     -0.126      0.422      0.000 
       3      0.000      5.124      0.000      0.000 
       4      0.000      0.000     -0.553      0.000 
       5      0.000      0.000      0.300      0.000 
       6      0.000      0.000     -0.100      0.000 
       7      0.000      0.000      0.132      0.000 
       8      0.000      0.000      0.198      0.000 
       9      0.000      0.000      0.198      0.000 
      10      0.000      0.000      0.300      0.000 
      11      0.000      0.000      0.300      0.000 
      12      0.000      0.000     -0.100      0.000 
      13      0.000      0.000      0.300      0.000 
      14      0.000      0.000      0.000      0.000 
      15      0.000      0.000      0.132      0.000 
      16      0.000      0.000      0.300      0.000 
      17      0.000      0.000      0.300      0.000 
      18      0.000      0.000      0.000      0.000 
      19      0.000      0.000      0.000      0.000 
      20      4.669      5.124      0.000      0.000 
      21      0.000      0.000      0.300      0.000 
      22      0.000      0.000      0.468      0.000 
      23      0.000      0.000      0.300      0.000 
      24      0.000      0.000      0.300      0.000 
      25      0.000      0.000      0.300      0.000 
      26      0.000      0.000      0.300      0.000 
      27      0.000      0.000      0.468      0.000 
      28      0.000      0.000      0.300      0.000 
      29      0.000      0.000      0.300      0.000 
      30      0.000      0.000     -0.100      0.000 
      31      0.000      0.000      0.300      0.000 
      32      0.000      0.000      0.300      0.000 
      33      0.000      0.000      0.300      0.000 
      34      0.000      0.000      0.300      0.000 
      35      0.000      0.000      0.300      0.000 
      36      0.000      0.000      0.300      0.000 
      37      0.000      0.000      0.300      0.000 
      38      0.000      0.000      0.300      0.000 

Improper Coeffs 

       1     10.500      -1       2 
       2      0.000      -1       2 
       3      0.000      -1       2 
       4      0.000      -1       2 
       5      0.000      -1       2 
       6      0.000      -1       2 
       7      0.000      -1       2 
       8      0.000      -1       2 
       9      0.000      -1       2 
      10      0.000      -1       2 
      11      0.000      -1       2 

Atoms 

    1  1  1  -0.361614  1.000  1.00000  0.00000
    2  1  2  -0.218406  -0.517  1.00000  0.00000
    3  1  3  -0.031855  -1.082  1.00000  1.41676
    4  1  4  -0.371648  -2.518  0.99829  1.37373
    5  1  5  0.502408  -3.091  -0.22960  1.21549
    6  1  6  -0.384299  -2.479  -1.28301  1.11264
    7  1  7  -0.280698  -4.593  -0.08592  1.18900
    8  1  8  -0.348126  -5.273  -1.41803  0.92386
    9  1  9  0.120705  1.377  0.99870  -1.02742
    10  1  10  0.122199  1.390  0.11084  0.50569
    11  1  11  0.113915  1.392  1.88707  0.50694
    12  1  12  0.130251  -0.881  0.12651  -0.55354
    13  1  13  0.113696  -0.892  1.87699  -0.54136
    14  1  14  0.117085  -0.779  1.91321  1.94029
    15  1  15  0.130338  -0.710  0.15417  2.00722
    16  1  16  0.138014  -4.862  0.62230  0.39844
    17  1  17  0.139517  -4.920  0.30804  2.15653
    18  1  18  0.126766  -4.965  -1.82762  -0.04435
    19  1  19  0.112248  -6.360  -1.29815  0.91585
    20  1  20  0.129505  -5.012  -2.15095  1.69479

Bonds 

     1      1      2      1
     2      2      3      2
     3      3      4      3
     4      4      5      4
     5      5      6      5
     6      6      7      5
     7      7      8      7
     8      8      9      1
     9      9     10      1
    10     10     11      1
    11     11     12      2
    12     12     13      2
    13     13     14      3
    14     14     15      3
    15     15     16      7
    16     16     17      7
    17     17     18      8
    18     18     19      8
    19     19     20      8

Angles 

     1      1      1      2      3
     2      2      2      3      4
     3      3      3      4      5
     4      4      4      5      6
     5      5      4      5      7
     6      6      5      7      8
     7      7      2      1      9
     8      8      2      1     10
     9      9      2      1     11
    10     10      1      2     12
    11     11      1      2     13
    12     12      2      3     14
    13     13      2      3     15
    14     14      5      7     16
    15     15      5      7     17
    16     16      7      8     18
    17     17      7      8     19
    18     18      7      8     20
    19     19     18      8     19
    20     20     12      2     13
    21     21      9      1     10
    22     22     18      8     20
    23     23     19      8     20
    24     24      6      5      7
    25     25     14      3     15
    26     26     16      7     17
    27     27      3      2     12
    28     28      4      3     15
    29     29     10      1     11
    30     30      3      2     13
    31     31      9      1     11
    32     32      8      7     17
    33     33      4      3     14
    34     34      8      7     16

Dihedrals

     1      1      4      3      2      1 
     2      2      5      4      3      2 
     3      3      6      5      4      3 
     4      4      8      7      5      4 
     5      5      9      1      2      3 
     6      6     18      8      7      5 
     7      7     16      7      5      4 
     8      8     15      3      4      5 
     9      9     14      3      4      5 
    10     10     15      3      2      1 
    11     11     14      3      2     12 
    12     12     20      8      7      5 
    13     13     11      1      2      3 
    14     14     16      7      5      6 
    15     15     17      7      5      4 
    16     16     14      3      2     13 
    17     17     15      3      2     12 
    18     18     17      7      5      6 
    19     19      8      7      5      6 
    20     20      7      5      4      3 
    21     21     13      2      1     11 
    22     22     12      2      3      4 
    23     23     19      8      7     16 
    24     24     20      8      7     16 
    25     25     20      8      7     17 
    26     26     19      8      7     17 
    27     27     13      2      3      4 
    28     28     12      2      1     11 
    29     29     13      2      1     10 
    30     30     19      8      7      5 
    31     31     15      3      2     13 
    32     32     18      8      7     16 
    33     33     18      8      7     17 
    34     34     10      1      2      3 
    35     35     13      2      1      9 
    36     36     12      2      1     10 
    37     37     14      3      2      1 
    38     38     12      2      1      9 

Impropers

     1      1      5      4      6      7 
     2      2      1     10      9      2 
     3      3      1      2     11      9 
     4      4      2      1      3     12 
     5      5      2      1      3     13 
     6      6      3      2      4     14 
     7      7      3      2      4     15 
     8      8      7      8      5     16 
     9      9      7     17      5      8 
    10     10      8     18     19      7 
    11     11      8     18     20      7 

