LAMMPS data file Created by LigParGen - (Written by Leela S. Dodda)

      21 atoms
      20 bonds
      35 angles
      37 dihedrals
      11 impropers
 
      21 atom types
      20 bond types
      35 angle types
      37 dihedral types
      11 improper types
 
   -2.350030    47.649970 xlo xhi
   -2.745670    47.254330 ylo yhi
   -1.018140    48.981860 zlo zhi

Masses

       1     12.011  
       2     12.011  
       3     15.999  
       4     12.011  
       5     15.999  
       6     15.999  
       7     12.011  
       8     12.011  
       9     12.011  
      10      1.008  
      11      1.008  
      12      1.008  
      13      1.008  
      14      1.008  
      15      1.008  
      16      1.008  
      17      1.008  
      18      1.008  
      19      1.008  
      20      1.008  
      21      1.008  

Pair Coeffs 

       1      0.066  3.5000000 
       2      0.066  3.5000000 
       3      0.140  2.9000000 
       4      0.070  3.5500000 
       5      0.210  2.9600000 
       6      0.140  2.9000000 
       7      0.066  3.5000000 
       8      0.066  3.5000000 
       9      0.066  3.5000000 
      10      0.030  2.5000000 
      11      0.030  2.5000000 
      12      0.030  2.5000000 
      13      0.030  2.5000000 
      14      0.030  2.5000000 
      15      0.030  2.5000000 
      16      0.030  2.5000000 
      17      0.030  2.5000000 
      18      0.030  2.5000000 
      19      0.030  2.5000000 
      20      0.030  2.5000000 
      21      0.030  2.5000000 

Bond Coeffs 

       1   268.0000     1.5290 
       2   320.0000     1.4100 
       3   214.0000     1.3270 
       4   570.0000     1.2290 
       5   214.0000     1.3270 
       6   320.0000     1.4100 
       7   268.0000     1.5290 
       8   268.0000     1.5290 
       9   340.0000     1.0900 
      10   340.0000     1.0900 
      11   340.0000     1.0900 
      12   340.0000     1.0900 
      13   340.0000     1.0900 
      14   340.0000     1.0900 
      15   340.0000     1.0900 
      16   340.0000     1.0900 
      17   340.0000     1.0900 
      18   340.0000     1.0900 
      19   340.0000     1.0900 
      20   340.0000     1.0900 

Angle Coeffs 

       1     50.000    109.500
       2     83.000    116.900
       3     83.000    123.400
       4     69.900    118.180
       5     83.000    116.900
       6     50.000    109.500
       7     50.000    109.500
       8     37.500    110.700
       9     37.500    110.700
      10     37.500    110.700
      11     37.500    110.700
      12     37.500    110.700
      13     35.000    109.500
      14     37.500    110.700
      15     37.500    110.700
      16     37.500    110.700
      17     37.500    110.700
      18     37.500    110.700
      19     37.500    110.700
      20     83.000    123.400
      21     35.000    109.500
      22     33.000    107.800
      23     33.000    107.800
      24     37.500    110.700
      25     33.000    107.800
      26     58.350    112.700
      27     33.000    107.800
      28     33.000    107.800
      29     33.000    107.800
      30     33.000    107.800
      31     33.000    107.800
      32     33.000    107.800
      33     35.000    109.500
      34     33.000    107.800
      35     37.500    110.700

Dihedral Coeffs  

       1     -1.220     -0.126      0.422      0.000 
       2      0.000      5.124      0.000      0.000 
       3      4.669      5.124      0.000      0.000 
       4     -1.220     -0.126      0.422      0.000 
       5      0.000      0.000      0.468      0.000 
       6      0.000      0.000      0.468      0.000 
       7      0.000      0.000      0.468      0.000 
       8      0.000      0.000      0.300      0.000 
       9      0.000      0.000      0.300      0.000 
      10      0.000      0.000      0.468      0.000 
      11      0.000      0.000      0.300      0.000 
      12      0.000      0.000      0.300      0.000 
      13      0.000      0.000      0.300      0.000 
      14      0.000      0.000      0.300      0.000 
      15      0.000      0.000      0.300      0.000 
      16      4.669      5.124      0.000      0.000 
      17      0.000      0.000      0.300      0.000 
      18      0.000      0.000      0.300      0.000 
      19      0.000      0.000      0.468      0.000 
      20      0.000      0.000      0.300      0.000 
      21      0.000      0.000      0.300      0.000 
      22      0.000      0.000      0.468      0.000 
      23      0.000      0.000      0.300      0.000 
      24      0.000      0.000      0.300      0.000 
      25      0.000      0.000      0.198      0.000 
      26      0.000      0.000      0.198      0.000 
      27      0.000      0.000      0.300      0.000 
      28      0.000      0.000      0.300      0.000 
      29      0.000      0.000      0.468      0.000 
      30      0.000      0.000      0.468      0.000 
      31     -1.220     -0.126      0.422      0.000 
      32      0.000      0.000      0.300      0.000 
      33      0.000      0.000      0.300      0.000 
      34      0.000      0.000      0.468      0.000 
      35      0.000      5.124      0.000      0.000 
      36      0.000      0.000      0.198      0.000 
      37      0.000      0.000      0.300      0.000 

Improper Coeffs 

       1     10.500      -1       2 
       2      0.000      -1       2 
       3      0.000      -1       2 
       4      0.000      -1       2 
       5      0.000      -1       2 
       6      0.000      -1       2 
       7      0.000      -1       2 
       8      0.000      -1       2 
       9      0.000      -1       2 
      10      0.000      -1       2 
      11      0.000      -1       2 

Atoms 

    1  1  1  -0.365999  1.000  1.00000  0.00000
    2  1  2  -0.043684  -0.519  1.00000  0.00000
    3  1  3  -0.361269  -0.966  1.00000  1.35961
    4  1  4  0.637885  -1.085  -0.22773  1.92150
    5  1  5  -0.392722  -1.090  -1.29380  1.32491
    6  1  6  -0.370085  -1.098  -0.06751  3.26663
    7  1  7  0.113152  -1.017  -1.27353  4.04386
    8  1  8  -0.375784  0.390  -1.86463  3.97632
    9  1  9  -0.364045  -1.357  -0.89229  5.48042
    10  1  10  0.120034  1.396  0.99871  -1.01814
    11  1  11  0.131215  1.390  0.12609  0.53251
    12  1  12  0.128551  1.377  1.88332  0.52676
    13  1  13  0.141508  -0.918  0.15156  -0.56647
    14  1  14  0.124266  -0.893  1.91388  -0.47249
    15  1  15  0.125040  -1.759  -1.99727  3.68206
    16  1  16  0.120749  1.138  -1.12587  4.28615
    17  1  17  0.140360  0.652  -2.16125  2.95627
    18  1  18  0.119206  0.478  -2.74567  4.61810
    19  1  19  0.125171  -0.649  -0.14683  5.86282
    20  1  20  0.120402  -1.337  -1.76819  6.13762
    21  1  21  0.126050  -2.350  -0.43447  5.52738

Bonds 

     1      1      2      1
     2      2      3      2
     3      3      4      3
     4      4      5      4
     5      5      6      4
     6      6      7      6
     7      7      8      7
     8      8      9      7
     9      9     10      1
    10     10     11      1
    11     11     12      1
    12     12     13      2
    13     13     14      2
    14     14     15      7
    15     15     16      8
    16     16     17      8
    17     17     18      8
    18     18     19      9
    19     19     20      9
    20     20     21      9

Angles 

     1      1      1      2      3
     2      2      2      3      4
     3      3      3      4      5
     4      4      3      4      6
     5      5      4      6      7
     6      6      6      7      8
     7      7      6      7      9
     8      8      2      1     10
     9      9      2      1     11
    10     10      2      1     12
    11     11      1      2     13
    12     12      1      2     14
    13     13      6      7     15
    14     14      7      8     16
    15     15      7      8     17
    16     16      7      8     18
    17     17      7      9     19
    18     18      7      9     20
    19     19      7      9     21
    20     20      5      4      6
    21     21      3      2     14
    22     22     13      2     14
    23     23     10      1     11
    24     24      8      7     15
    25     25     19      9     21
    26     26      8      7      9
    27     27     17      8     18
    28     28     20      9     21
    29     29     16      8     18
    30     30     16      8     17
    31     31     11      1     12
    32     32     10      1     12
    33     33      3      2     13
    34     34     19      9     20
    35     35      9      7     15

Dihedrals

     1      1      4      3      2      1 
     2      2      5      4      3      2 
     3      3      7      6      4      3 
     4      4      8      7      6      4 
     5      5     10      1      2      3 
     6      6     16      8      7      6 
     7      7     19      9      7      6 
     8      8     20      9      7     15 
     9      9     18      8      7      9 
    10     10     21      9      7      6 
    11     11     16      8      7      9 
    12     12     17      8      7      9 
    13     13     19      9      7      8 
    14     14     18      8      7     15 
    15     15     16      8      7     15 
    16     16      6      4      3      2 
    17     17     13      2      1     12 
    18     18     14      2      1     11 
    19     19     12      1      2      3 
    20     20     20      9      7      8 
    21     21     21      9      7     15 
    22     22     17      8      7      6 
    23     23     13      2      1     11 
    24     24     14      2      1     10 
    25     25     13      2      3      4 
    26     26     14      2      3      4 
    27     27     13      2      1     10 
    28     28     17      8      7     15 
    29     29     18      8      7      6 
    30     30     11      1      2      3 
    31     31      9      7      6      4 
    32     32     21      9      7      8 
    33     33     14      2      1     12 
    34     34     20      9      7      6 
    35     35      7      6      4      5 
    36     36     15      7      6      4 
    37     37     19      9      7     15 

Impropers

     1      1      4      3      5      6 
     2      2      7      9      6      8 
     3      3      1      2     11     10 
     4      4      1      2     12     10 
     5      5      2      1      3     13 
     6      6      2      1      3     14 
     7      7      7      8     15      6 
     8      8      8     17     16      7 
     9      9      8     18     16      7 
    10     10      9     19     20      7 
    11     11      9     19     21      7 

