LAMMPS data file Created by LigParGen - (Written by Leela S. Dodda)

      12 atoms
      11 bonds
      17 angles
      10 dihedrals
       5 impropers
 
      12 atom types
      11 bond types
      17 angle types
      10 dihedral types
       5 improper types
 
   -4.095000    45.905000 xlo xhi
    0.099060    50.099060 ylo yhi
   -1.040020    48.959980 zlo zhi

Masses

       1     12.011  
       2     15.999  
       3     12.011  
       4     15.999  
       5     15.999  
       6     12.011  
       7      1.008  
       8      1.008  
       9      1.008  
      10      1.008  
      11      1.008  
      12      1.008  

Pair Coeffs 

       1      0.066  3.5000000 
       2      0.140  2.9000000 
       3      0.070  3.5500000 
       4      0.210  2.9600000 
       5      0.140  2.9000000 
       6      0.066  3.5000000 
       7      0.030  2.5000000 
       8      0.030  2.5000000 
       9      0.030  2.5000000 
      10      0.030  2.5000000 
      11      0.030  2.5000000 
      12      0.030  2.5000000 

Bond Coeffs 

       1   320.0000     1.4100 
       2   214.0000     1.3270 
       3   570.0000     1.2290 
       4   214.0000     1.3270 
       5   320.0000     1.4100 
       6   340.0000     1.0900 
       7   340.0000     1.0900 
       8   340.0000     1.0900 
       9   340.0000     1.0900 
      10   340.0000     1.0900 
      11   340.0000     1.0900 

Angle Coeffs 

       1     83.000    116.900
       2     83.000    123.400
       3     69.900    118.180
       4     83.000    116.900
       5     35.000    109.500
       6     35.000    109.500
       7     35.000    109.500
       8     35.000    109.500
       9     35.000    109.500
      10     35.000    109.500
      11     33.000    107.800
      12     33.000    107.800
      13     33.000    107.800
      14     33.000    107.800
      15     33.000    107.800
      16     83.000    123.400
      17     33.000    107.800

Dihedral Coeffs  

       1      0.000      5.124      0.000      0.000 
       2      4.669      5.124      0.000      0.000 
       3      0.000      0.000      0.198      0.000 
       4      0.000      0.000      0.198      0.000 
       5      0.000      0.000      0.198      0.000 
       6      0.000      0.000      0.198      0.000 
       7      4.669      5.124      0.000      0.000 
       8      0.000      5.124      0.000      0.000 
       9      0.000      0.000      0.198      0.000 
      10      0.000      0.000      0.198      0.000 

Improper Coeffs 

       1     10.500      -1       2 
       2      0.000      -1       2 
       3      0.000      -1       2 
       4      0.000      -1       2 
       5      0.000      -1       2 

Atoms 

    1  1  1  -0.172698  1.000  1.00000  0.00000
    2  1  2  -0.357794  -0.426  1.00000  0.00000
    3  1  3  0.640802  -0.973  1.00000  1.24122
    4  1  4  -0.392586  -0.355  1.00000  2.29507
    5  1  5  -0.357686  -2.323  1.00163  1.10777
    6  1  6  -0.172826  -3.023  1.00346  2.34960
    7  1  7  0.134256  1.338  0.99869  -1.04002
    8  1  8  0.136086  1.383  0.09906  0.48946
    9  1  9  0.136002  1.385  1.90179  0.48698
    10  1  10  0.134325  -4.095  1.00598  2.13321
    11  1  11  0.136083  -2.784  1.90445  2.92333
    12  1  12  0.136038  -2.788  0.10146  2.92358

Bonds 

     1      1      2      1
     2      2      3      2
     3      3      4      3
     4      4      5      3
     5      5      6      5
     6      6      7      1
     7      7      8      1
     8      8      9      1
     9      9     10      6
    10     10     11      6
    11     11     12      6

Angles 

     1      1      1      2      3
     2      2      2      3      4
     3      3      2      3      5
     4      4      3      5      6
     5      5      2      1      7
     6      6      2      1      8
     7      7      2      1      9
     8      8      5      6     10
     9      9      5      6     11
    10     10      5      6     12
    11     11      7      1      8
    12     12     11      6     12
    13     13     10      6     12
    14     14      8      1      9
    15     15      7      1      9
    16     16      4      3      5
    17     17     10      6     11

Dihedrals

     1      1      4      3      2      1 
     2      2      6      5      3      2 
     3      3      7      1      2      3 
     4      4     10      6      5      3 
     5      5     12      6      5      3 
     6      6     11      6      5      3 
     7      7      5      3      2      1 
     8      8      6      5      3      4 
     9      9      9      1      2      3 
    10     10      8      1      2      3 

Impropers

     1      1      3      2      4      5 
     2      2      1      2      7      8 
     3      3      1      9      7      2 
     4      4      6     10     11      5 
     5      5      6     10     12      5 

