LAMMPS data file Created by LigParGen - (Written by Leela S. Dodda)

      10 atoms
      10 bonds
      17 angles
      19 dihedrals
       5 impropers
 
      10 atom types
      10 bond types
      17 angle types
      19 dihedral types
       5 improper types
 
   -0.912880    49.087120 xlo xhi
    0.089160    50.089160 ylo yhi
   -0.885450    49.114550 zlo zhi

Masses

       1     12.011  
       2     12.011  
       3     15.999  
       4     12.011  
       5     15.999  
       6     15.999  
       7      1.008  
       8      1.008  
       9      1.008  
      10      1.008  

Pair Coeffs 

       1      0.066  3.5000000 
       2      0.066  3.5000000 
       3      0.140  2.9000000 
       4      0.070  3.5500000 
       5      0.210  2.9600000 
       6      0.140  2.9000000 
       7      0.030  2.5000000 
       8      0.030  2.5000000 
       9      0.030  2.5000000 
      10      0.030  2.5000000 

Bond Coeffs 

       1   268.0000     1.5290 
       2   320.0000     1.4100 
       3   214.0000     1.3270 
       4   570.0000     1.2290 
       5   320.0000     1.4100 
       6   340.0000     1.0900 
       7   340.0000     1.0900 
       8   340.0000     1.0900 
       9   340.0000     1.0900 
      10   214.0000     1.3270 

Angle Coeffs 

       1     50.000    109.500
       2     83.000    116.900
       3     83.000    123.400
       4     50.000    109.500
       5     37.500    110.700
       6     37.500    110.700
       7     37.500    110.700
       8     37.500    110.700
       9     83.000    123.400
      10     35.000    109.500
      11     83.000    116.900
      12     33.000    107.800
      13     33.000    107.800
      14     69.900    118.180
      15     35.000    109.500
      16     35.000    109.500
      17     35.000    109.500

Dihedral Coeffs  

       1     -1.220     -0.126      0.422      0.000 
       2      0.000      5.124      0.000      0.000 
       3     -0.550      0.000      0.000      0.000 
       4      0.000      0.000      0.300      0.000 
       5      0.000      0.000      0.198      0.000 
       6      0.000      0.000      0.468      0.000 
       7      0.000      0.000      0.198      0.000 
       8      4.669      5.124      0.000      0.000 
       9      0.000      0.000      0.198      0.000 
      10      4.669      5.124      0.000      0.000 
      11      0.000      0.000      0.300      0.000 
      12     -1.220     -0.126      0.422      0.000 
      13      0.000      0.000      0.468      0.000 
      14      0.000      0.000      0.198      0.000 
      15      0.000      0.000      0.468      0.000 
      16      0.000      5.124      0.000      0.000 
      17      0.000      0.000      0.300      0.000 
      18      0.000      0.000      0.468      0.000 
      19      0.000      0.000      0.300      0.000 

Improper Coeffs 

       1      0.000      -1       2 
       2      0.000      -1       2 
       3      0.000      -1       2 
       4      0.000      -1       2 
       5     10.500      -1       2 

Atoms 

    1  1  1  -0.056197  1.000  1.00000  0.00000
    2  1  2  -0.055940  -0.494  1.00000  0.00000
    3  1  3  -0.348252  -0.807  1.00000  1.38004
    4  1  4  0.631133  0.255  0.42349  2.01812
    5  1  5  -0.375943  0.256  0.08916  3.19011
    6  1  6  -0.346380  1.313  0.27332  1.17313
    7  1  7  0.136720  1.418  2.00847  0.09077
    8  1  8  0.139211  1.419  0.51454  -0.88545
    9  1  9  0.136524  -0.911  0.09433  -0.45290
    10  1  10  0.139124  -0.913  1.87840  -0.49810

Bonds 

     1      1      2      1
     2      2      3      2
     3      3      4      3
     4      4      5      4
     5      5      6      1
     6      6      7      1
     7      7      8      1
     8      8      9      2
     9      9     10      2
    10     10      6      4

Angles 

     1      1      1      2      3
     2      2      2      3      4
     3      3      3      4      5
     4      4      2      1      6
     5      5      2      1      7
     6      6      2      1      8
     7      7      1      2      9
     8      8      1      2     10
     9      9      5      4      6
    10     10      6      1      7
    11     11      1      6      4
    12     12      9      2     10
    13     13      7      1      8
    14     14      3      4      6
    15     15      6      1      8
    16     16      3      2      9
    17     17      3      2     10

Dihedrals

     1      1      4      3      2      1 
     2      2      5      4      3      2 
     3      3      6      1      2      3 
     4      4     10      2      1      8 
     5      5      8      1      6      4 
     6      6      9      2      1      6 
     7      7      9      2      3      4 
     8      8      6      4      3      2 
     9      9      7      1      6      4 
    10     10      3      4      6      1 
    11     11     10      2      1      7 
    12     12      4      6      1      2 
    13     13     10      2      1      6 
    14     14     10      2      3      4 
    15     15      8      1      2      3 
    16     16      5      4      6      1 
    17     17      9      2      1      7 
    18     18      7      1      2      3 
    19     19      9      2      1      8 

Impropers

     1      1      1      2      6      7 
     2      2      1      2      6      8 
     3      3      2      9      3      1 
     4      4      2      1     10      3 
     5      5      4      3      5      6 

