LAMMPS data file Created by LigParGen - (Written by Leela S. Dodda)

      24 atoms
      23 bonds
      41 angles
      46 dihedrals
      13 impropers
 
      24 atom types
      23 bond types
      41 angle types
      46 dihedral types
      13 improper types
 
   -3.756840    46.243160 xlo xhi
    0.105580    50.105580 ylo yhi
   -5.469600    44.530400 zlo zhi

Masses

       1     12.011  
       2     12.011  
       3     12.011  
       4     15.999  
       5     12.011  
       6     15.999  
       7     15.999  
       8     12.011  
       9     12.011  
      10     12.011  
      11      1.008  
      12      1.008  
      13      1.008  
      14      1.008  
      15      1.008  
      16      1.008  
      17      1.008  
      18      1.008  
      19      1.008  
      20      1.008  
      21      1.008  
      22      1.008  
      23      1.008  
      24      1.008  

Pair Coeffs 

       1      0.066  3.5000000 
       2      0.066  3.5000000 
       3      0.066  3.5000000 
       4      0.140  2.9000000 
       5      0.070  3.5500000 
       6      0.210  2.9600000 
       7      0.140  2.9000000 
       8      0.066  3.5000000 
       9      0.066  3.5000000 
      10      0.066  3.5000000 
      11      0.030  2.5000000 
      12      0.030  2.5000000 
      13      0.030  2.5000000 
      14      0.030  2.5000000 
      15      0.030  2.5000000 
      16      0.030  2.5000000 
      17      0.030  2.5000000 
      18      0.030  2.5000000 
      19      0.030  2.5000000 
      20      0.030  2.5000000 
      21      0.030  2.5000000 
      22      0.030  2.5000000 
      23      0.030  2.5000000 
      24      0.030  2.5000000 

Bond Coeffs 

       1   268.0000     1.5290 
       2   268.0000     1.5290 
       3   320.0000     1.4100 
       4   214.0000     1.3270 
       5   570.0000     1.2290 
       6   214.0000     1.3270 
       7   320.0000     1.4100 
       8   268.0000     1.5290 
       9   268.0000     1.5290 
      10   340.0000     1.0900 
      11   340.0000     1.0900 
      12   340.0000     1.0900 
      13   340.0000     1.0900 
      14   340.0000     1.0900 
      15   340.0000     1.0900 
      16   340.0000     1.0900 
      17   340.0000     1.0900 
      18   340.0000     1.0900 
      19   340.0000     1.0900 
      20   340.0000     1.0900 
      21   340.0000     1.0900 
      22   340.0000     1.0900 
      23   340.0000     1.0900 

Angle Coeffs 

       1     58.350    112.700
       2     50.000    109.500
       3     83.000    116.900
       4     83.000    123.400
       5     69.900    118.180
       6     83.000    116.900
       7     50.000    109.500
       8     50.000    109.500
       9     37.500    110.700
      10     37.500    110.700
      11     37.500    110.700
      12     37.500    110.700
      13     37.500    110.700
      14     37.500    110.700
      15     37.500    110.700
      16     35.000    109.500
      17     37.500    110.700
      18     37.500    110.700
      19     37.500    110.700
      20     37.500    110.700
      21     37.500    110.700
      22     37.500    110.700
      23     33.000    107.800
      24     37.500    110.700
      25     33.000    107.800
      26     37.500    110.700
      27     33.000    107.800
      28     33.000    107.800
      29     58.350    112.700
      30     33.000    107.800
      31     35.000    109.500
      32     33.000    107.800
      33     33.000    107.800
      34     83.000    123.400
      35     33.000    107.800
      36     50.000    109.500
      37     37.500    110.700
      38     33.000    107.800
      39     33.000    107.800
      40     33.000    107.800
      41     33.000    107.800

Dihedral Coeffs  

       1     -1.220     -0.126      0.422      0.000 
       2      0.000      5.124      0.000      0.000 
       3      4.669      5.124      0.000      0.000 
       4     -1.220     -0.126      0.422      0.000 
       5      0.000      0.000      0.300      0.000 
       6      0.000      0.000      0.300      0.000 
       7      0.000      0.000      0.468      0.000 
       8      0.000      0.000      0.468      0.000 
       9      0.000      0.000      0.468      0.000 
      10      0.000      0.000      0.300      0.000 
      11     -1.220     -0.126      0.422      0.000 
      12      0.000      0.000      0.468      0.000 
      13      0.000      0.000      0.468      0.000 
      14      4.669      5.124      0.000      0.000 
      15      0.000      0.000      0.300      0.000 
      16      0.000      0.000      0.468      0.000 
      17      0.000      0.000      0.300      0.000 
      18      0.000      0.000      0.300      0.000 
      19      0.000      0.000      0.300      0.000 
      20      0.000      0.000      0.300      0.000 
      21     -1.220     -0.126      0.422      0.000 
      22      0.000      0.000      0.300      0.000 
      23      0.000      0.000      0.300      0.000 
      24      0.000      0.000      0.300      0.000 
      25      0.000      0.000      0.300      0.000 
      26      0.000      0.000      0.468      0.000 
      27      0.000      5.124      0.000      0.000 
      28      0.000      0.000      0.198      0.000 
      29      0.000      0.000      0.300      0.000 
      30      0.000      0.000      0.300      0.000 
      31      0.000      0.000      0.300      0.000 
      32      0.000      0.000      0.300      0.000 
      33      0.000      0.000      0.300      0.000 
      34      0.000      0.000      0.300      0.000 
      35      0.000      0.000      0.300      0.000 
      36      0.000      0.000      0.300      0.000 
      37      0.000      0.000      0.300      0.000 
      38      0.000      0.000      0.300      0.000 
      39      0.000      0.000      0.468      0.000 
      40      0.000      0.000      0.300      0.000 
      41      0.000      0.000      0.198      0.000 
      42      0.000      0.000      0.468      0.000 
      43      0.000      0.000      0.468      0.000 
      44      0.000      0.000      0.468      0.000 
      45      0.000      0.000      0.300      0.000 
      46      0.000      0.000      0.468      0.000 

Improper Coeffs 

       1      0.000      -1       2 
       2     10.500      -1       2 
       3      0.000      -1       2 
       4      0.000      -1       2 
       5      0.000      -1       2 
       6      0.000      -1       2 
       7      0.000      -1       2 
       8      0.000      -1       2 
       9      0.000      -1       2 
      10      0.000      -1       2 
      11      0.000      -1       2 
      12      0.000      -1       2 
      13      0.000      -1       2 

Atoms 

    1  1  1  -0.368822  1.000  1.00000  0.00000
    2  1  2  0.108135  -0.525  1.00000  0.00000
    3  1  3  -0.363480  -1.059  1.00000  1.42782
    4  1  4  -0.376234  -1.013  2.18895  -0.64574
    5  1  5  0.649466  -1.035  2.14810  -2.00283
    6  1  6  -0.395574  -0.681  1.20392  -2.69332
    7  1  7  -0.375770  -1.517  3.33156  -2.45875
    8  1  8  0.108521  -1.607  3.45186  -3.88907
    9  1  9  -0.369929  -2.866  2.74974  -4.38832
    10  1  10  -0.363624  -1.657  4.93824  -4.22260
    11  1  11  0.117483  1.393  0.11704  0.51300
    12  1  12  0.121287  1.390  1.89714  0.49241
    13  1  13  0.136905  1.393  1.00581  -1.02159
    14  1  14  0.127042  -0.906  0.10558  -0.50855
    15  1  15  0.125375  -0.742  1.89957  1.96678
    16  1  16  0.120622  -0.714  0.11964  1.97914
    17  1  17  0.124425  -2.154  1.00363  1.42549
    18  1  18  0.126662  -0.715  3.02114  -4.36193
    19  1  19  0.121442  -3.757  3.14706  -3.88961
    20  1  20  0.137794  -2.833  1.67886  -4.16366
    21  1  21  0.117509  -2.984  2.87030  -5.46960
    22  1  22  0.125395  -2.511  5.42216  -3.73479
    23  1  23  0.120708  -1.733  5.09884  -5.30297
    24  1  24  0.124662  -0.757  5.44236  -3.85605

Bonds 

     1      1      2      1
     2      2      3      2
     3      3      4      2
     4      4      5      4
     5      5      6      5
     6      6      7      5
     7      7      8      7
     8      8      9      8
     9      9     10      8
    10     10     11      1
    11     11     12      1
    12     12     13      1
    13     13     14      2
    14     14     15      3
    15     15     16      3
    16     16     17      3
    17     17     18      8
    18     18     19      9
    19     19     20      9
    20     20     21      9
    21     21     22     10
    22     22     23     10
    23     23     24     10

Angles 

     1      1      1      2      3
     2      2      1      2      4
     3      3      2      4      5
     4      4      4      5      6
     5      5      4      5      7
     6      6      5      7      8
     7      7      7      8      9
     8      8      7      8     10
     9      9      2      1     11
    10     10      2      1     12
    11     11      2      1     13
    12     12      1      2     14
    13     13      2      3     15
    14     14      2      3     16
    15     15      2      3     17
    16     16      7      8     18
    17     17      8      9     19
    18     18      8      9     20
    19     19      8      9     21
    20     20      8     10     22
    21     21      8     10     23
    22     22      8     10     24
    23     23     15      3     17
    24     24      3      2     14
    25     25     11      1     13
    26     26      9      8     18
    27     27     19      9     21
    28     28     22     10     23
    29     29      9      8     10
    30     30     15      3     16
    31     31      4      2     14
    32     32     22     10     24
    33     33     11      1     12
    34     34      6      5      7
    35     35     12      1     13
    36     36      3      2      4
    37     37     10      8     18
    38     38     23     10     24
    39     39     16      3     17
    40     40     20      9     21
    41     41     19      9     20

Dihedrals

     1      1      5      4      2      1 
     2      2      6      5      4      2 
     3      3      8      7      5      4 
     4      4      9      8      7      5 
     5      5     11      1      2      3 
     6      6     15      3      2      1 
     7      7     19      9      8      7 
     8      8     22     10      8      7 
     9      9     16      3      2      4 
    10     10     20      9      8     18 
    11     11     10      8      7      5 
    12     12     21      9      8      7 
    13     13     15      3      2      4 
    14     14      7      5      4      2 
    15     15     14      2      1     13 
    16     16     12      1      2      4 
    17     17     20      9      8     10 
    18     18     17      3      2     14 
    19     19     22     10      8      9 
    20     20     23     10      8      9 
    21     21      5      4      2      3 
    22     22     19      9      8     18 
    23     23     21      9      8     18 
    24     24     14      2      1     11 
    25     25     12      1      2      3 
    26     26     11      1      2      4 
    27     27      8      7      5      6 
    28     28     18      8      7      5 
    29     29     24     10      8     18 
    30     30     22     10      8     18 
    31     31     15      3      2     14 
    32     32     19      9      8     10 
    33     33     17      3      2      1 
    34     34     16      3      2      1 
    35     35     24     10      8      9 
    36     36     23     10      8     18 
    37     37     16      3      2     14 
    38     38     13      1      2      3 
    39     39     13      1      2      4 
    40     40     21      9      8     10 
    41     41     14      2      4      5 
    42     42     24     10      8      7 
    43     43     23     10      8      7 
    44     44     20      9      8      7 
    45     45     14      2      1     12 
    46     46     17      3      2      4 

Impropers

     1      1      2      1      3      4 
     2      2      5      4      6      7 
     3      3      8      9     10      7 
     4      4      1      2     11     12 
     5      5      1      2     11     13 
     6      6      2      1      3     14 
     7      7      3      2     15     16 
     8      8      3     17      2     15 
     9      9      8      9     18      7 
    10     10      9     19     20      8 
    11     11      9     19     21      8 
    12     12     10     22     23      8 
    13     13     10      8     22     24 

