LAMMPS data file Created by LigParGen - (Written by Leela S. Dodda)

      10 atoms
      10 bonds
      17 angles
      19 dihedrals
       5 impropers
 
      10 atom types
      10 bond types
      17 angle types
      19 dihedral types
       5 improper types
 
   -3.036040    46.963960 xlo xhi
   -0.327380    49.672620 ylo yhi
   -1.334310    48.665690 zlo zhi

Masses

       1     15.999  
       2     12.011  
       3     15.999  
       4     12.011  
       5     12.011  
       6     15.999  
       7      1.008  
       8      1.008  
       9      1.008  
      10      1.008  

Pair Coeffs 

       1      0.210  2.9600000 
       2      0.070  3.5500000 
       3      0.140  2.9000000 
       4      0.066  3.5000000 
       5      0.066  3.5000000 
       6      0.140  2.9000000 
       7      0.030  2.5000000 
       8      0.030  2.5000000 
       9      0.030  2.5000000 
      10      0.030  2.5000000 

Bond Coeffs 

       1   570.0000     1.2290 
       2   214.0000     1.3270 
       3   320.0000     1.4100 
       4   268.0000     1.5290 
       5   214.0000     1.3270 
       6   340.0000     1.0900 
       7   340.0000     1.0900 
       8   340.0000     1.0900 
       9   340.0000     1.0900 
      10   320.0000     1.4100 

Angle Coeffs 

       1     83.000    123.400
       2     83.000    116.900
       3     50.000    109.500
       4     83.000    123.400
       5     35.000    109.500
       6     35.000    109.500
       7     37.500    110.700
       8     37.500    110.700
       9     35.000    109.500
      10     83.000    116.900
      11     33.000    107.800
      12     33.000    107.800
      13     69.900    118.180
      14     50.000    109.500
      15     37.500    110.700
      16     35.000    109.500
      17     37.500    110.700

Dihedral Coeffs  

       1      0.000      5.124      0.000      0.000 
       2     -1.220     -0.126      0.422      0.000 
       3      0.000      0.000      0.198      0.000 
       4      4.669      5.124      0.000      0.000 
       5      0.000      0.000      0.198      0.000 
       6      0.000      0.000      0.468      0.000 
       7      0.000      5.124      0.000      0.000 
       8     -0.550      0.000      0.000      0.000 
       9      0.000      0.000      0.300      0.000 
      10     -1.220     -0.126      0.422      0.000 
      11      0.000      0.000      0.198      0.000 
      12      0.000      0.000      0.300      0.000 
      13      0.000      0.000      0.468      0.000 
      14      4.669      5.124      0.000      0.000 
      15      0.000      0.000      0.300      0.000 
      16      0.000      0.000      0.468      0.000 
      17      0.000      0.000      0.300      0.000 
      18      0.000      0.000      0.198      0.000 
      19      0.000      0.000      0.468      0.000 

Improper Coeffs 

       1     10.500      -1       2 
       2      0.000      -1       2 
       3      0.000      -1       2 
       4      0.000      -1       2 
       5      0.000      -1       2 

Atoms 

    1  1  1  -0.375502  1.000  1.00000  0.00000
    2  1  2  0.631297  -0.219  1.00000  0.00000
    3  1  3  -0.347953  -0.991  1.00000  1.12738
    4  1  4  -0.055855  -2.319  0.74932  0.70552
    5  1  5  -0.055979  -2.318  1.24536  -0.70368
    6  1  6  -0.347406  -0.991  0.99858  -1.12726
    7  1  7  0.139265  -3.036  1.28047  1.33685
    8  1  8  0.136629  -2.509  -0.32738  0.77006
    9  1  9  0.136522  -2.511  2.32157  -0.76755
    10  1  10  0.138983  -3.035  0.71273  -1.33431

Bonds 

     1      1      2      1
     2      2      3      2
     3      3      4      3
     4      4      5      4
     5      5      6      2
     6      6      7      4
     7      7      8      4
     8      8      9      5
     9      9     10      5
    10     10      6      5

Angles 

     1      1      1      2      3
     2      2      2      3      4
     3      3      3      4      5
     4      4      1      2      6
     5      5      3      4      7
     6      6      3      4      8
     7      7      4      5      9
     8      8      4      5     10
     9      9      6      5      9
    10     10      2      6      5
    11     11      9      5     10
    12     12      7      4      8
    13     13      3      2      6
    14     14      4      5      6
    15     15      5      4      7
    16     16      6      5     10
    17     17      5      4      8

Dihedrals

     1      1      4      3      2      1 
     2      2      5      4      3      2 
     3      3      8      4      3      2 
     4      4      6      2      3      4 
     5      5      7      4      3      2 
     6      6      8      4      5      6 
     7      7      5      6      2      1 
     8      8      6      5      4      3 
     9      9     10      5      4      7 
    10     10      4      5      6      2 
    11     11     10      5      6      2 
    12     12     10      5      4      8 
    13     13      7      4      5      6 
    14     14      5      6      2      3 
    15     15      9      5      4      7 
    16     16      9      5      4      3 
    17     17      9      5      4      8 
    18     18      9      5      6      2 
    19     19     10      5      4      3 

Impropers

     1      1      2      1      3      6 
     2      2      4      3      5      7 
     3      3      4      3      5      8 
     4      4      5      9      4      6 
     5      5      5     10      4      6 

