LAMMPS data file Created by LigParGen - (Written by Leela S. Dodda)

      14 atoms
      14 bonds
      23 angles
      24 dihedrals
       7 impropers
 
      14 atom types
      14 bond types
      23 angle types
      24 dihedral types
       7 improper types
 
   -3.412440    46.587560 xlo xhi
    0.108680    50.108680 ylo yhi
   -3.043280    46.956720 zlo zhi

Masses

       1     12.011  
       2     12.011  
       3     15.999  
       4     12.011  
       5     15.999  
       6     15.999  
       7     12.011  
       8     12.011  
       9      1.008  
      10      1.008  
      11      1.008  
      12      1.008  
      13      1.008  
      14      1.008  

Pair Coeffs 

       1      0.066  3.5000000 
       2      0.070  3.5500000 
       3      0.140  2.9000000 
       4      0.070  3.5500000 
       5      0.210  2.9600000 
       6      0.140  2.9000000 
       7      0.070  3.5500000 
       8      0.066  3.5000000 
       9      0.030  2.5000000 
      10      0.030  2.5000000 
      11      0.030  2.5000000 
      12      0.030  2.5000000 
      13      0.030  2.5000000 
      14      0.030  2.5000000 

Bond Coeffs 

       1   317.0000     1.5040 
       2   340.0000     1.3600 
       3   214.0000     1.3270 
       4   570.0000     1.2290 
       5   214.0000     1.3270 
       6   512.0000     1.3750 
       7   317.0000     1.5040 
       8   340.0000     1.0900 
       9   340.0000     1.0900 
      10   340.0000     1.0900 
      11   340.0000     1.0900 
      12   340.0000     1.0900 
      13   340.0000     1.0900 
      14   340.0000     1.3600 

Angle Coeffs 

       1     70.000    121.600
       2     83.000    116.900
       3     83.000    123.400
       4     69.900    118.180
       5     70.000    120.000
       6     70.000    120.000
       7     35.000    109.500
       8     35.000    109.500
       9     35.000    109.500
      10     35.000    109.500
      11     35.000    109.500
      12     35.000    109.500
      13     83.000    123.400
      14     33.000    107.800
      15     33.000    107.800
      16     83.000    116.900
      17     70.000    120.000
      18     70.000    121.600
      19     33.000    107.800
      20     33.000    107.800
      21     33.000    107.800
      22     70.000    120.000
      23     33.000    107.800

Dihedral Coeffs  

       1      0.000      7.250      0.000      0.000 
       2      0.000      5.124      0.000      0.000 
       3      0.000      0.000      0.000      0.000 
       4      0.000      0.000      0.000      0.000 
       5      0.000      0.000      0.000      0.000 
       6      0.000     10.750      0.000      0.000 
       7      0.000      0.000      0.000      0.000 
       8      0.000      0.000      0.000      0.000 
       9      0.000     10.750      0.000      0.000 
      10      0.000     10.750      0.000      0.000 
      11      0.000      0.000      0.000      0.000 
      12      0.000      7.250      0.000      0.000 
      13      4.669      5.124      0.000      0.000 
      14      0.000     10.750      0.000      0.000 
      15      0.000      7.250      0.000      0.000 
      16      0.000      0.000      0.000      0.000 
      17      0.000      0.000      0.000      0.000 
      18      0.000      0.000      0.000      0.000 
      19      4.669      5.124      0.000      0.000 
      20      0.000      0.000      0.000      0.000 
      21      0.000      0.000      0.000      0.000 
      22      0.000      7.250      0.000      0.000 
      23      0.000      0.000      0.000      0.000 
      24      0.000      5.124      0.000      0.000 

Improper Coeffs 

       1     10.500      -1       2 
       2      2.500      -1       2 
       3      2.500      -1       2 
       4      0.000      -1       2 
       5      0.000      -1       2 
       6      0.000      -1       2 
       7      0.000      -1       2 

Atoms 

    1  1  1  -0.432958  1.000  1.00000  0.00000
    2  1  2  0.237698  -0.483  1.00000  0.00000
    3  1  3  -0.360954  -1.146  1.00000  1.21037
    4  1  4  0.620715  -2.470  1.00172  0.79571
    5  1  5  -0.384178  -3.412  1.00099  1.57828
    6  1  6  -0.361259  -2.631  1.00274  -0.58308
    7  1  7  0.239579  -1.322  1.00128  -1.01245
    8  1  8  -0.432862  -1.048  0.99990  -2.46966
    9  1  9  0.151582  1.391  1.00000  1.02245
    10  1  10  0.142644  1.386  1.89048  -0.50631
    11  1  11  0.142628  1.386  0.10956  -0.50628
    12  1  12  0.151690  -1.980  1.00032  -3.04328
    13  1  13  0.142864  -0.480  0.10868  -2.75413
    14  1  14  0.142812  -0.478  1.88952  -2.75547

Bonds 

     1      1      2      1
     2      2      3      2
     3      3      4      3
     4      4      5      4
     5      5      6      4
     6      6      7      2
     7      7      8      7
     8      8      9      1
     9      9     10      1
    10     10     11      1
    11     11     12      8
    12     12     13      8
    13     13     14      8
    14     14      7      6

Angles 

     1      1      1      2      3
     2      2      2      3      4
     3      3      3      4      5
     4      4      3      4      6
     5      5      1      2      7
     6      6      2      7      8
     7      7      2      1      9
     8      8      2      1     10
     9      9      2      1     11
    10     10      7      8     12
    11     11      7      8     13
    12     12      7      8     14
    13     13      5      4      6
    14     14     12      8     14
    15     15     13      8     14
    16     16      4      6      7
    17     17      2      7      6
    18     18      6      7      8
    19     19     10      1     11
    20     20      9      1     10
    21     21      9      1     11
    22     22      3      2      7
    23     23     12      8     13

Dihedrals

     1      1      4      3      2      1 
     2      2      5      4      3      2 
     3      3      9      1      2      3 
     4      4     12      8      7      2 
     5      5     13      8      7      2 
     6      6      6      7      2      1 
     7      7     13      8      7      6 
     8      8     14      8      7      6 
     9      9      6      7      2      3 
    10     10      8      7      2      1 
    11     11     14      8      7      2 
    12     12      4      6      7      2 
    13     13      6      4      3      2 
    14     14      8      7      2      3 
    15     15      8      7      6      4 
    16     16     12      8      7      6 
    17     17     10      1      2      7 
    18     18      9      1      2      7 
    19     19      7      6      4      3 
    20     20     10      1      2      3 
    21     21     11      1      2      3 
    22     22      7      2      3      4 
    23     23     11      1      2      7 
    24     24      7      6      4      5 

Impropers

     1      1      4      3      5      6 
     2      2      2      1      3      7 
     3      3      7      2      6      8 
     4      4      1     10      9      2 
     5      5      1      2     11      9 
     6      6      8     12     13      7 
     7      7      8     12     14      7 

