LAMMPS data file Created by LigParGen - (Written by Leela S. Dodda)

      17 atoms
      17 bonds
      29 angles
      36 dihedrals
       9 impropers
 
      17 atom types
      17 bond types
      29 angle types
      36 dihedral types
       9 improper types
 
   -5.517210    44.482790 xlo xhi
   -0.355190    49.644810 ylo yhi
   -1.026760    48.973240 zlo zhi

Masses

       1     12.011  
       2     12.011  
       3     12.011  
       4     12.011  
       5     12.011  
       6     15.999  
       7     12.011  
       8     15.999  
       9     15.999  
      10      1.008  
      11      1.008  
      12      1.008  
      13      1.008  
      14      1.008  
      15      1.008  
      16      1.008  
      17      1.008  

Pair Coeffs 

       1      0.066  3.5000000 
       2      0.066  3.5000000 
       3      0.066  3.5000000 
       4      0.070  3.5500000 
       5      0.070  3.5500000 
       6      0.140  2.9000000 
       7      0.070  3.5500000 
       8      0.210  2.9600000 
       9      0.140  2.9000000 
      10      0.030  2.5000000 
      11      0.030  2.5000000 
      12      0.030  2.5000000 
      13      0.030  2.5000000 
      14      0.030  2.5000000 
      15      0.030  2.5000000 
      16      0.030  2.5000000 
      17      0.030  2.4200000 

Bond Coeffs 

       1   268.0000     1.5290 
       2   268.0000     1.5290 
       3   317.0000     1.5040 
       4   512.0000     1.3750 
       5   340.0000     1.3600 
       6   214.0000     1.3270 
       7   570.0000     1.2290 
       8   340.0000     1.3600 
       9   340.0000     1.0900 
      10   340.0000     1.0900 
      11   340.0000     1.0900 
      12   340.0000     1.0900 
      13   340.0000     1.0900 
      14   340.0000     1.0900 
      15   340.0000     1.0900 
      16   367.0000     1.0800 
      17   214.0000     1.3270 

Angle Coeffs 

       1     58.350    112.700
       2     63.000    114.000
       3     70.000    120.000
       4     70.000    120.000
       5     83.000    116.900
       6     83.000    123.400
       7     70.000    121.600
       8     37.500    110.700
       9     37.500    110.700
      10     37.500    110.700
      11     37.500    110.700
      12     37.500    110.700
      13     37.500    110.700
      14     37.500    110.700
      15     35.000    130.700
      16     37.500    110.700
      17     33.000    107.800
      18     70.000    120.000
      19     83.000    123.400
      20     35.000    113.400
      21     33.000    107.800
      22     33.000    107.800
      23     83.000    116.900
      24     33.000    107.800
      25     33.000    107.800
      26     37.500    110.700
      27     69.900    118.180
      28     35.000    109.500
      29     35.000    109.500

Dihedral Coeffs  

       1      1.300     -0.200      0.200      0.000 
       2      0.000      0.000      0.000      0.000 
       3      0.000     10.750      0.000      0.000 
       4      0.000      7.250      0.000      0.000 
       5      0.000      5.124      0.000      0.000 
       6      0.000      0.000      0.300      0.000 
       7      0.000      0.000      0.000      0.000 
       8      0.000      0.000      0.000      0.000 
       9      0.000      0.000      0.300      0.000 
      10      0.000      0.000      0.300      0.000 
      11      0.000      0.000      0.300      0.000 
      12      0.000      0.000      0.300      0.000 
      13      0.000     10.750      0.000      0.000 
      14      0.000      0.000      0.300      0.000 
      15      0.000      0.000      0.300      0.000 
      16      0.000      0.000      0.300      0.000 
      17      0.000      7.250      0.000      0.000 
      18      4.669      5.124      0.000      0.000 
      19      0.000      0.000      0.000      0.000 
      20      0.000      7.250      0.000      0.000 
      21      0.000      0.000      0.300      0.000 
      22      0.000      0.000      0.300      0.000 
      23      0.000      7.250      0.000      0.000 
      24      0.000      0.000      0.300      0.000 
      25      0.000      0.000      0.462      0.000 
      26      0.000      0.000      0.300      0.000 
      27      0.000      0.000      0.462      0.000 
      28      0.000      5.124      0.000      0.000 
      29      0.000      0.000      0.000      0.000 
      30      0.000      0.000      0.300      0.000 
      31      4.669      5.124      0.000      0.000 
      32      0.000      0.000      0.300      0.000 
      33      0.000      0.000      0.000      0.000 
      34      0.000      0.000      0.300      0.000 
      35      0.000     10.750      0.000      0.000 
      36      0.000     10.750      0.000      0.000 

Improper Coeffs 

       1      2.500      -1       2 
       2      0.000      -1       2 
       3      0.000      -1       2 
       4      0.000      -1       2 
       5      0.000      -1       2 
       6      0.000      -1       2 
       7      0.000      -1       2 
       8      2.500      -1       2 
       9     10.500      -1       2 

Atoms 

    1  1  1  -0.354726  1.000  1.00000  0.00000
    2  1  2  -0.207032  -0.521  1.00000  0.00000
    3  1  3  -0.278673  -1.077  1.00000  1.42532
    4  1  4  0.278071  -2.566  1.00174  1.44777
    5  1  5  0.012930  -3.396  1.88512  1.94930
    6  1  6  -0.332595  -4.704  1.52994  1.77314
    7  1  7  0.623851  -4.562  0.32089  1.10217
    8  1  8  -0.379482  -5.517  -0.35519  0.74156
    9  1  9  -0.361759  -3.245  -0.05437  0.87402
    10  1  10  0.122277  1.379  1.00130  -1.02676
    11  1  11  0.118550  1.391  0.11107  0.50529
    12  1  12  0.115079  1.392  1.88665  0.50832
    13  1  13  0.128657  -0.875  0.11651  -0.54537
    14  1  14  0.115997  -0.880  1.88187  -0.54437
    15  1  15  0.125503  -0.696  1.87694  1.96375
    16  1  16  0.132580  -0.715  0.11603  1.96452
    17  1  17  0.140774  -3.208  2.81159  2.46001

Bonds 

     1      1      2      1
     2      2      3      2
     3      3      4      3
     4      4      5      4
     5      5      6      5
     6      6      7      6
     7      7      8      7
     8      8      9      4
     9      9     10      1
    10     10     11      1
    11     11     12      1
    12     12     13      2
    13     13     14      2
    14     14     15      3
    15     15     16      3
    16     16     17      5
    17     17      9      7

Angles 

     1      1      1      2      3
     2      2      2      3      4
     3      3      3      4      5
     4      4      4      5      6
     5      5      5      6      7
     6      6      6      7      8
     7      7      3      4      9
     8      8      2      1     10
     9      9      2      1     11
    10     10      2      1     12
    11     11      1      2     13
    12     12      1      2     14
    13     13      2      3     15
    14     14      2      3     16
    15     15      4      5     17
    16     16      3      2     14
    17     17     13      2     14
    18     18      5      4      9
    19     19      8      7      9
    20     20      6      5     17
    21     21     15      3     16
    22     22     11      1     12
    23     23      4      9      7
    24     24     10      1     12
    25     25     10      1     11
    26     26      3      2     13
    27     27      6      7      9
    28     28      4      3     16
    29     29      4      3     15

Dihedrals

     1      1      4      3      2      1 
     2      2      5      4      3      2 
     3      3      6      5      4      3 
     4      4      7      6      5      4 
     5      5      8      7      6      5 
     6      6     10      1      2      3 
     7      7     15      3      4      5 
     8      8     16      3      4      9 
     9      9     15      3      2      1 
    10     10     11      1      2      3 
    11     11     16      3      2     13 
    12     12     15      3      2     14 
    13     13     17      5      4      9 
    14     14     13      2      1     12 
    15     15     14      2      1     11 
    16     16     12      1      2      3 
    17     17      7      9      4      5 
    18     18      9      7      6      5 
    19     19     16      3      4      5 
    20     20      7      9      4      3 
    21     21     13      2      1     11 
    22     22     14      2      1     10 
    23     23     17      5      6      7 
    24     24     16      3      2      1 
    25     25     14      2      3      4 
    26     26     16      3      2     14 
    27     27     13      2      3      4 
    28     28      8      7      9      4 
    29     29     15      3      4      9 
    30     30     13      2      1     10 
    31     31      6      7      9      4 
    32     32     15      3      2     13 
    33     33      9      4      3      2 
    34     34     14      2      1     12 
    35     35      9      4      5      6 
    36     36     17      5      4      3 

Impropers

     1      1      4      9      3      5 
     2      2      1      2     11     10 
     3      3      1      2     12     10 
     4      4      2      1      3     13 
     5      5      2      1      3     14 
     6      6      3      2      4     15 
     7      7      3      2      4     16 
     8      8      5     17      4      6 
     9      9      7      9      6      8 

