LAMMPS data file Created by LigParGen - (Written by Leela S. Dodda)

      15 atoms
      14 bonds
      25 angles
      24 dihedrals
       8 impropers
 
      15 atom types
      14 bond types
      25 angle types
      24 dihedral types
       8 improper types
 
   -1.580780    48.419220 xlo xhi
   -4.384030    45.615970 ylo yhi
   -3.957400    46.042600 zlo zhi

Masses

       1     18.998  
       2     12.011  
       3     18.998  
       4     18.998  
       5     12.011  
       6     15.999  
       7     12.011  
       8     12.011  
       9     18.998  
      10     18.998  
      11     18.998  
      12      1.008  
      13      1.008  
      14      1.008  
      15      1.008  

Pair Coeffs 

       1      0.060  2.9000000 
       2      0.066  3.5000000 
       3      0.060  2.9000000 
       4      0.060  2.9000000 
       5      0.066  3.5000000 
       6      0.140  2.9000000 
       7      0.066  3.5000000 
       8      0.066  3.5000000 
       9      0.060  2.9000000 
      10      0.060  2.9000000 
      11      0.060  2.9000000 
      12      0.030  2.5000000 
      13      0.030  2.5000000 
      14      0.030  2.5000000 
      15      0.030  2.5000000 

Bond Coeffs 

       1   367.0000     1.3600 
       2   367.0000     1.3600 
       3   367.0000     1.3600 
       4   268.0000     1.5290 
       5   320.0000     1.4100 
       6   320.0000     1.4100 
       7   268.0000     1.5290 
       8   367.0000     1.3600 
       9   367.0000     1.3600 
      10   367.0000     1.3600 
      11   340.0000     1.0900 
      12   340.0000     1.0900 
      13   340.0000     1.0900 
      14   340.0000     1.0900 

Angle Coeffs 

       1     77.000    109.100
       2     77.000    109.100
       3     50.000    109.500
       4     50.000    109.500
       5     60.000    109.500
       6     50.000    109.500
       7     50.000    109.500
       8     50.000    109.500
       9     50.000    109.500
      10     37.500    110.700
      11     37.500    110.700
      12     35.000    109.500
      13     35.000    109.500
      14     77.000    109.100
      15     33.000    107.800
      16     37.500    110.700
      17     35.000    109.500
      18     33.000    107.800
      19     77.000    109.100
      20     50.000    109.500
      21     35.000    109.500
      22     77.000    109.100
      23     50.000    109.500
      24     37.500    110.700
      25     77.000    109.100

Dihedral Coeffs  

       1      0.000      0.000      0.540      0.000 
       2      0.650     -0.250      0.670      0.000 
       3      0.650     -0.250      0.670      0.000 
       4      0.000      0.000      0.540      0.000 
       5      0.000      0.000      0.360      0.000 
       6      0.000      0.000      0.360      0.000 
       7      0.000      0.000      0.360      0.000 
       8      0.000      0.000      0.540      0.000 
       9      0.000      0.000      0.760      0.000 
      10      0.000      0.000      0.360      0.000 
      11      0.000      0.000      0.360      0.000 
      12      0.000      0.000      0.760      0.000 
      13      0.000      0.000      0.540      0.000 
      14      0.000      0.000      0.360      0.000 
      15      0.000      0.000      0.360      0.000 
      16      0.000      0.000      0.540      0.000 
      17      0.000      0.000      0.540      0.000 
      18      0.000      0.000      0.360      0.000 
      19      0.000      0.000      0.360      0.000 
      20      0.000      0.000      0.360      0.000 
      21      0.000      0.000      0.360      0.000 
      22      0.000      0.000      0.360      0.000 
      23      0.000      0.000      0.760      0.000 
      24      0.000      0.000      0.760      0.000 

Improper Coeffs 

       1      0.000      -1       2 
       2      0.000      -1       2 
       3      0.000      -1       2 
       4      0.000      -1       2 
       5      0.000      -1       2 
       6      0.000      -1       2 
       7      0.000      -1       2 
       8      0.000      -1       2 

Atoms 

    1  1  1  -0.198719  1.000  1.00000  0.00000
    2  1  2  0.668185  -0.349  1.00000  0.00000
    3  1  3  -0.216303  -0.757  1.00000  1.29095
    4  1  4  -0.216400  -0.759  2.16816  -0.54889
    5  1  5  -0.114498  -0.948  -0.19245  -0.75566
    6  1  6  -0.382979  0.049  -1.06607  -1.30927
    7  1  7  -0.114287  -0.530  -2.17705  -2.01131
    8  1  8  0.668362  0.518  -3.12331  -2.60882
    9  1  9  -0.199088  1.784  -2.76083  -2.31377
    10  1  10  -0.216512  0.338  -4.38403  -2.14818
    11  1  11  -0.215791  0.408  -3.16585  -3.95740
    12  1  12  0.134610  -1.579  0.17960  -1.57066
    13  1  13  0.134601  -1.581  -0.76855  -0.07094
    14  1  14  0.134566  -1.166  -1.79084  -2.81627
    15  1  15  0.134256  -1.165  -2.73797  -1.31586

Bonds 

     1      1      2      1
     2      2      3      2
     3      3      4      2
     4      4      5      2
     5      5      6      5
     6      6      7      6
     7      7      8      7
     8      8      9      8
     9      9     10      8
    10     10     11      8
    11     11     12      5
    12     12     13      5
    13     13     14      7
    14     14     15      7

Angles 

     1      1      1      2      3
     2      2      1      2      4
     3      3      1      2      5
     4      4      2      5      6
     5      5      5      6      7
     6      6      6      7      8
     7      7      7      8      9
     8      8      7      8     10
     9      9      7      8     11
    10     10      2      5     12
    11     11      2      5     13
    12     12      6      7     14
    13     13      6      7     15
    14     14     10      8     11
    15     15     14      7     15
    16     16      8      7     15
    17     17      6      5     13
    18     18     12      5     13
    19     19      3      2      4
    20     20      3      2      5
    21     21      6      5     12
    22     22      9      8     11
    23     23      4      2      5
    24     24      8      7     14
    25     25      9      8     10

Dihedrals

     1      1      6      5      2      1 
     2      2      7      6      5      2 
     3      3      8      7      6      5 
     4      4      9      8      7      6 
     5      5     12      5      2      1 
     6      6     15      7      8     10 
     7      7     15      7      8     11 
     8      8      6      5      2      4 
     9      9     13      5      6      7 
    10     10     12      5      2      3 
    11     11     14      7      8      9 
    12     12     12      5      6      7 
    13     13     10      8      7      6 
    14     14     13      5      2      1 
    15     15     14      7      8     11 
    16     16      6      5      2      3 
    17     17     11      8      7      6 
    18     18     13      5      2      4 
    19     19     15      7      8      9 
    20     20     14      7      8     10 
    21     21     13      5      2      3 
    22     22     12      5      2      4 
    23     23     15      7      6      5 
    24     24     14      7      6      5 

Impropers

     1      1      2      1      3      4 
     2      2      2      1      3      5 
     3      3      8      9     10      7 
     4      4      8      9     11      7 
     5      5      5      2     12      6 
     6      6      5     13      6      2 
     7      7      7      8     14      6 
     8      8      7      8     15      6 

